4
Lattice="3.7093808300 0.0000000000 0.0000000000 0.0000000000 3.7093808300 0.0000000000 0.0000000000 0.0000000000 3.7093808300" Properties=species:S:1:pos:R:3:forces:R:3:rwigs:R:1:MAGMOM_smoothed:R:3:magmom_raw:R:3:constr_field:R:3 pbc="T T T" code=VASP version=6.6.0 energy_free=-36.7150642400 energy_zero=-36.7157940800 soc=F stress="-4.568578e-03 -4.556178e-03 -4.358542e-03 1.554117e-06 4.813339e-06 -1.025633e-05" comment="ENCUT=350, KPOINTS=5 5 5, ICONST=4, LAMBDA=1"
Mn  0.0000000000  1.8546904150  1.8546904150 -0.0000474100  0.0000387700  0.0000423900  1.3020000000  1.4840000000  0.7420000000 -0.7430000000  2.2160000000  1.1080000000 -1.1090000000 -0.0000371970 -0.0001169200 -0.0001912500
Mn  1.8546904150  0.0000000000  1.8546904150  0.0000331600 -0.0001963800 -0.0000145700  1.3020000000 -0.7420000000 -1.4850000000 -0.7430000000 -1.1080000000 -2.2170000000 -1.1090000000  0.0002354500  0.0000147530 -0.0002648100
Mn  1.8546904150  1.8546904150  0.0000000000  0.0000066200 -0.0000529500 -0.0001098300  1.3020000000 -0.7420000000  0.7420000000  1.4840000000 -1.1080000000  1.1080000000  2.2160000000  0.0000158830  0.0000359440 -0.0000100310
Ir  0.0000000000  0.0000000000  0.0000000000  0.0000076300  0.0002105500  0.0000820100  1.4550000000  0.0010000000  0.0010000000 -0.0000000000  0.0020000000  0.0020000000 -0.0000000000  0.0000000000  0.0000000000  0.0000000000
