       N       E                     dE             d eps       ncg     rms          rms(c)

 E_p =  0.00000E+00  lambda =  0.100E+01
<lVp>=  0.00000E+00
 DBL =  0.00000E+00
 ion        MW_int                 M_int
  1  1.490  0.745 -0.745    2.321  1.161 -1.161
  2 -0.745 -1.490 -0.745   -1.161 -2.321 -1.161
  3 -0.745  0.745  1.490   -1.161  1.161  2.321
  4 -0.000  0.000  0.000    0.000  0.000  0.000
DAV:   1     0.248348138575E+03    0.24835E+03   -0.91486E+03 10008   0.131E+03

 E_p =  0.00000E+00  lambda =  0.100E+01
<lVp>=  0.00000E+00
 DBL =  0.00000E+00
 ion        MW_int                 M_int
  1  1.490  0.745 -0.745    2.321  1.161 -1.161
  2 -0.745 -1.490 -0.745   -1.161 -2.321 -1.161
  3 -0.745  0.745  1.490   -1.161  1.161  2.321
  4 -0.000  0.000  0.000    0.000  0.000  0.000
DAV:   2    -0.776239512220E+01   -0.25611E+03   -0.24724E+03 10000   0.406E+02

 E_p =  0.00000E+00  lambda =  0.100E+01
<lVp>=  0.00000E+00
 DBL =  0.00000E+00
 ion        MW_int                 M_int
  1  1.490  0.745 -0.745    2.321  1.161 -1.161
  2 -0.745 -1.490 -0.745   -1.161 -2.321 -1.161
  3 -0.745  0.745  1.490   -1.161  1.161  2.321
  4 -0.000  0.000  0.000    0.000  0.000  0.000
DAV:   3    -0.390449818654E+02   -0.31283E+02   -0.28253E+02 16808   0.156E+02

 E_p =  0.00000E+00  lambda =  0.100E+01
<lVp>=  0.00000E+00
 DBL =  0.00000E+00
 ion        MW_int                 M_int
  1  1.490  0.745 -0.745    2.321  1.161 -1.161
  2 -0.745 -1.490 -0.745   -1.161 -2.321 -1.161
  3 -0.745  0.745  1.490   -1.161  1.161  2.321
  4 -0.000  0.000  0.000    0.000  0.000  0.000
DAV:   4    -0.414723085517E+02   -0.24273E+01   -0.23365E+01 16512   0.540E+01

 E_p =  0.00000E+00  lambda =  0.100E+01
<lVp>=  0.00000E+00
 DBL =  0.00000E+00
 ion        MW_int                 M_int
  1  1.490  0.745 -0.745    2.321  1.161 -1.161
  2 -0.745 -1.490 -0.745   -1.161 -2.321 -1.161
  3 -0.745  0.745  1.490   -1.161  1.161  2.321
  4 -0.000  0.000  0.000    0.000  0.000  0.000
DAV:   5    -0.415672017202E+02   -0.94893E-01   -0.93645E-01 16304   0.986E+00    0.240E+01

 E_p =  0.26805E-10  lambda =  0.100E+01
<lVp>=  0.26805E-10
 DBL =  0.00000E+00
 ion        MW_int                 M_int
  1  1.479  0.740 -0.740    2.304  1.152 -1.152
  2 -0.740 -1.479 -0.740   -1.152 -2.304 -1.152
  3 -0.740  0.740  1.479   -1.152  1.152  2.304
  4 -0.000 -0.000  0.000   -0.000 -0.000  0.000
DAV:   6    -0.402286218997E+02    0.13386E+01   -0.76702E-01 17256   0.148E+01    0.209E+01

 E_p =  0.23840E-09  lambda =  0.100E+01
<lVp>=  0.23840E-09
 DBL =  0.00000E+00
 ion        MW_int                 M_int
  1  1.435  0.718 -0.718    2.233  1.117 -1.117
  2 -0.718 -1.435 -0.718   -1.117 -2.233 -1.117
  3 -0.718  0.718  1.435   -1.117  1.117  2.233
  4  0.000 -0.000  0.000    0.000 -0.000  0.000
DAV:   7    -0.376193774004E+02    0.26092E+01   -0.11905E+01 17176   0.573E+01    0.126E+01

 E_p =  0.36541E-09  lambda =  0.100E+01
<lVp>=  0.36541E-09
 DBL =  0.00000E+00
 ion        MW_int                 M_int
  1  1.436  0.718 -0.718    2.235  1.118 -1.118
  2 -0.718 -1.436 -0.718   -1.118 -2.235 -1.118
  3 -0.718  0.718  1.436   -1.118  1.118  2.235
  4 -0.000  0.000  0.000   -0.000  0.000  0.000
DAV:   8    -0.379236335237E+02   -0.30426E+00   -0.82327E-01 17632   0.860E+00    0.134E+01

 E_p =  0.49056E-08  lambda =  0.100E+01
<lVp>=  0.49056E-08
 DBL =  0.00000E+00
 ion        MW_int                 M_int
  1  1.399  0.699 -0.700    2.165  1.082 -1.082
  2 -0.700 -1.399 -0.700   -1.082 -2.165 -1.083
  3 -0.700  0.700  1.399   -1.082  1.083  2.165
  4  0.000 -0.000  0.000    0.000 -0.000  0.000
DAV:   9    -0.369260941976E+02    0.99754E+00   -0.40172E+00 13640   0.244E+01    0.915E+00

 E_p =  0.77476E-08  lambda =  0.100E+01
<lVp>=  0.77476E-08
 DBL =  0.00000E+00
 ion        MW_int                 M_int
  1  1.399  0.699 -0.700    2.161  1.080 -1.081
  2 -0.700 -1.399 -0.700   -1.080 -2.161 -1.081
  3 -0.700  0.700  1.399   -1.080  1.081  2.161
  4  0.000 -0.000  0.000    0.000 -0.000  0.000
DAV:  10    -0.369023763004E+02    0.23718E-01   -0.27957E-01 16712   0.553E+00    0.853E+00

 E_p =  0.60622E-07  lambda =  0.100E+01
<lVp>=  0.60622E-07
 DBL =  0.00000E+00
 ion        MW_int                 M_int
  1  1.434  0.717 -0.717    2.177  1.088 -1.089
  2 -0.717 -1.435 -0.717   -1.088 -2.178 -1.089
  3 -0.717  0.718  1.435   -1.089  1.089  2.178
  4  0.000 -0.000 -0.000    0.000 -0.000 -0.000
DAV:  11    -0.367776169478E+02    0.12476E+00   -0.12201E+00 15632   0.191E+01    0.295E+00

 E_p =  0.93738E-07  lambda =  0.100E+01
<lVp>=  0.93738E-07
 DBL =  0.00000E+00
 ion        MW_int                 M_int
  1  1.433  0.716 -0.717    2.158  1.078 -1.079
  2 -0.717 -1.434 -0.717   -1.079 -2.158 -1.080
  3 -0.717  0.717  1.434   -1.079  1.080  2.159
  4  0.000 -0.000 -0.000    0.000 -0.000 -0.000
DAV:  12    -0.367071594803E+02    0.70457E-01   -0.37445E-01 16656   0.565E+00    0.136E+00

 E_p =  0.89380E-07  lambda =  0.100E+01
<lVp>=  0.89380E-07
 DBL =  0.00000E+00
 ion        MW_int                 M_int
  1  1.433  0.716 -0.717    2.157  1.078 -1.079
  2 -0.717 -1.434 -0.717   -1.078 -2.158 -1.080
  3 -0.717  0.717  1.434   -1.079  1.080  2.159
  4  0.000 -0.000 -0.000    0.000 -0.000 -0.000
DAV:  13    -0.367085812752E+02   -0.14218E-02   -0.18884E-02 14496   0.188E+00    0.122E+00

 E_p =  0.89309E-07  lambda =  0.100E+01
<lVp>=  0.89309E-07
 DBL =  0.00000E+00
 ion        MW_int                 M_int
  1  1.433  0.716 -0.717    2.157  1.078 -1.079
  2 -0.717 -1.434 -0.717   -1.078 -2.158 -1.080
  3 -0.717  0.717  1.434   -1.079  1.080  2.159
  4  0.000 -0.000 -0.000    0.000 -0.000 -0.000
DAV:  14    -0.367086617518E+02   -0.80477E-04   -0.91839E-04 17456   0.252E-01    0.123E+00

 E_p =  0.90826E-07  lambda =  0.100E+01
<lVp>=  0.90826E-07
 DBL =  0.00000E+00
 ion        MW_int                 M_int
  1  1.434  0.717 -0.717    2.159  1.079 -1.080
  2 -0.717 -1.435 -0.717   -1.079 -2.160 -1.080
  3 -0.717  0.718  1.435   -1.080  1.081  2.160
  4  0.000 -0.000 -0.000    0.000 -0.000 -0.000
DAV:  15    -0.367102522670E+02   -0.15905E-02   -0.17284E-03 14928   0.456E-01    0.118E+00

 E_p =  0.20450E-06  lambda =  0.100E+01
<lVp>=  0.20450E-06
 DBL =  0.00000E+00
 ion        MW_int                 M_int
  1  1.445  0.722 -0.723    2.167  1.083 -1.084
  2 -0.722 -1.446 -0.723   -1.083 -2.168 -1.084
  3 -0.723  0.723  1.446   -1.084  1.084  2.168
  4  0.000 -0.000 -0.000    0.001 -0.000 -0.000
DAV:  16    -0.367187557684E+02   -0.85035E-02   -0.13802E-02 19480   0.173E+00    0.839E-01

 E_p =  0.44183E-06  lambda =  0.100E+01
<lVp>=  0.44183E-06
 DBL =  0.00000E+00
 ion        MW_int                 M_int
  1  1.457  0.728 -0.729    2.179  1.089 -1.090
  2 -0.728 -1.458 -0.730   -1.089 -2.180 -1.091
  3 -0.729  0.729  1.458   -1.090  1.091  2.180
  4  0.000  0.000  0.000    0.001  0.000  0.000
DAV:  17    -0.367211888458E+02   -0.24331E-02   -0.84465E-03 15544   0.111E+00    0.815E-01

 E_p =  0.47283E-06  lambda =  0.100E+01
<lVp>=  0.47283E-06
 DBL =  0.00000E+00
 ion        MW_int                 M_int
  1  1.459  0.729 -0.730    2.181  1.090 -1.091
  2 -0.729 -1.460 -0.731   -1.090 -2.182 -1.092
  3 -0.730  0.730  1.460   -1.091  1.091  2.182
  4  0.000  0.000  0.000    0.001  0.000  0.000
DAV:  18    -0.367208180746E+02    0.37077E-03   -0.13517E-03 17328   0.493E-01    0.831E-01

 E_p =  0.48829E-06  lambda =  0.100E+01
<lVp>=  0.48829E-06
 DBL =  0.00000E+00
 ion        MW_int                 M_int
  1  1.460  0.730 -0.731    2.182  1.090 -1.092
  2 -0.730 -1.461 -0.731   -1.091 -2.183 -1.093
  3 -0.730  0.731  1.461   -1.092  1.092  2.184
  4  0.000  0.000  0.000    0.001  0.000  0.000
DAV:  19    -0.367197924074E+02    0.10257E-02   -0.58290E-04 15456   0.352E-01    0.773E-01

 E_p =  0.59900E-06  lambda =  0.100E+01
<lVp>=  0.59900E-06
 DBL =  0.00000E+00
 ion        MW_int                 M_int
  1  1.473  0.736 -0.737    2.197  1.098 -1.100
  2 -0.736 -1.473 -0.738   -1.098 -2.198 -1.100
  3 -0.737  0.737  1.474   -1.099  1.099  2.198
  4  0.001  0.001 -0.000    0.001  0.001  0.000
DAV:  20    -0.367177690752E+02    0.20233E-02   -0.36640E-03 18656   0.730E-01    0.691E-01

 E_p =  0.58005E-06  lambda =  0.100E+01
<lVp>=  0.58005E-06
 DBL =  0.00000E+00
 ion        MW_int                 M_int
  1  1.477  0.738 -0.739    2.204  1.101 -1.103
  2 -0.738 -1.478 -0.740   -1.102 -2.205 -1.104
  3 -0.739  0.739  1.477   -1.102  1.103  2.205
  4  0.001  0.001 -0.000    0.001  0.002  0.000
DAV:  21    -0.367157673464E+02    0.20017E-02   -0.32809E-03 16896   0.621E-01    0.550E-01

 E_p =  0.57202E-06  lambda =  0.100E+01
<lVp>=  0.57202E-06
 DBL =  0.00000E+00
 ion        MW_int                 M_int
  1  1.480  0.739 -0.741    2.207  1.103 -1.105
  2 -0.739 -1.480 -0.741   -1.103 -2.208 -1.105
  3 -0.740  0.740  1.480   -1.104  1.104  2.208
  4  0.001  0.001 -0.000    0.002  0.002  0.000
DAV:  22    -0.367158583115E+02   -0.90965E-04   -0.55728E-04 17008   0.264E-01    0.578E-01

 E_p =  0.48000E-06  lambda =  0.100E+01
<lVp>=  0.48000E-06
 DBL =  0.00000E+00
 ion        MW_int                 M_int
  1  1.480  0.739 -0.741    2.208  1.103 -1.105
  2 -0.739 -1.480 -0.741   -1.104 -2.209 -1.105
  3 -0.740  0.740  1.480   -1.104  1.104  2.209
  4  0.001  0.001  0.000    0.002  0.002  0.001
DAV:  23    -0.367154741427E+02    0.38417E-03   -0.42093E-04 13800   0.241E-01    0.444E-01

 E_p =  0.38238E-06  lambda =  0.100E+01
<lVp>=  0.38238E-06
 DBL =  0.00000E+00
 ion        MW_int                 M_int
  1  1.482  0.741 -0.742    2.211  1.105 -1.107
  2 -0.741 -1.482 -0.742   -1.105 -2.212 -1.107
  3 -0.741  0.741  1.482   -1.106  1.106  2.212
  4  0.002  0.001  0.000    0.002  0.001  0.001
DAV:  24    -0.367152057288E+02    0.26841E-03   -0.51491E-04 16176   0.324E-01    0.325E-01

 E_p =  0.26086E-06  lambda =  0.100E+01
<lVp>=  0.26086E-06
 DBL =  0.00000E+00
 ion        MW_int                 M_int
  1  1.483  0.741 -0.742    2.214  1.107 -1.108
  2 -0.741 -1.484 -0.742   -1.107 -2.215 -1.108
  3 -0.742  0.742  1.483   -1.107  1.107  2.215
  4  0.002  0.001  0.000    0.002  0.001  0.000
DAV:  25    -0.367151127612E+02    0.92968E-04   -0.75906E-04 12144   0.314E-01    0.163E-01

 E_p =  0.25161E-06  lambda =  0.100E+01
<lVp>=  0.25161E-06
 DBL =  0.00000E+00
 ion        MW_int                 M_int
  1  1.484  0.742 -0.742    2.214  1.107 -1.108
  2 -0.741 -1.484 -0.743   -1.107 -2.215 -1.108
  3 -0.742  0.742  1.484   -1.108  1.108  2.215
  4  0.002  0.001 -0.000    0.002  0.001  0.000
DAV:  26    -0.367151288912E+02   -0.16130E-04   -0.79753E-05 15712   0.115E-01    0.160E-01

 E_p =  0.23737E-06  lambda =  0.100E+01
<lVp>=  0.23737E-06
 DBL =  0.00000E+00
 ion        MW_int                 M_int
  1  1.483  0.742 -0.742    2.214  1.107 -1.108
  2 -0.741 -1.484 -0.743   -1.107 -2.215 -1.108
  3 -0.742  0.742  1.484   -1.108  1.108  2.215
  4  0.002  0.001 -0.000    0.002  0.002  0.000
DAV:  27    -0.367150830773E+02    0.45814E-04   -0.12810E-04 12080   0.133E-01    0.148E-01

 E_p =  0.22073E-06  lambda =  0.100E+01
<lVp>=  0.22073E-06
 DBL =  0.00000E+00
 ion        MW_int                 M_int
  1  1.484  0.742 -0.743    2.216  1.107 -1.109
  2 -0.742 -1.485 -0.743   -1.108 -2.216 -1.109
  3 -0.742  0.742  1.484   -1.108  1.108  2.216
  4  0.001  0.001 -0.000    0.002  0.002 -0.000
DAV:  28    -0.367150712123E+02    0.11865E-04   -0.92931E-05 12944   0.113E-01    0.151E-01

 E_p =  0.20681E-06  lambda =  0.100E+01
<lVp>=  0.20681E-06
 DBL =  0.00000E+00
 ion        MW_int                 M_int
  1  1.484  0.742 -0.743    2.216  1.108 -1.109
  2 -0.742 -1.485 -0.743   -1.108 -2.217 -1.109
  3 -0.742  0.742  1.484   -1.108  1.108  2.216
  4  0.001  0.001 -0.000    0.002  0.002 -0.000
DAV:  29    -0.367150642421E+02    0.69702E-05   -0.20063E-05  9968   0.558E-02
   1 F= -.36715064E+02 E0= -.36715794E+02  d E =0.218952E-02  mag=     0.0003     0.0005    -0.0007

 E_p =  0.20681E-06  lambda =  0.100E+01
 ion             lambda*MW_perp
  1  -0.37197E-04  -0.11692E-03  -0.19125E-03
  2   0.23545E-03   0.14753E-04  -0.26481E-03
  3   0.15883E-04   0.35944E-04  -0.10031E-04
