16
Lattice="5.9700000000 0.0000000000 0.0000000000 0.0000000000 5.9700000000 0.0000000000 0.0000000000 0.0000000000 5.9700000000" Properties=species:S:1:pos:R:3:forces:R:3:rwigs:R:1:MAGMOM_smoothed:R:3:magmom_raw:R:3:constr_field:R:3 pbc="T T T" energy_free=-124.8045572900 energy_zero=-124.7975367100 stress="2.075815e-02 2.075815e-02 2.086163e-02 0.000000e+00 -0.000000e+00 -1.687080e-08" comment="path=tools/test/fixtures/FeRh, VASP6.6.0, ENCUT=300, KPOINTS=3 3 3, ICONST=1, LAMBDA=2"
Fe  0.0000000000  0.0000000000  0.0000000000 -0.0000000000 -0.0000000000 -0.0000000000  1.2447000000  0.0000000000  0.0000000000  2.1890000000  0.0000000000  0.0000000000  3.1550000000  0.0000000000 -0.0000000000  0.0000000000
Fe  0.0000000000  0.0000000000  2.9850000000  0.0000000000  0.0000000000  0.0000000000  1.2447000000 -0.0000000000 -0.0000000000  2.1890000000 -0.0000000000 -0.0000000000  3.1550000000 -0.0000000000  0.0000000000  0.0000000000
Fe  2.9850000000  0.0000000000  0.0000000000 -0.0000000000 -0.0000000000 -0.0000000000  1.2447000000  0.0000000000 -0.0000000000  2.1890000000  0.0000000000 -0.0000000000  3.1550000000  0.0000000000 -0.0000000000  0.0000000000
Fe  0.0000000000  2.9850000000  0.0000000000  0.0000000000 -0.0000000000 -0.0000000000  1.2447000000 -0.0000000000 -0.0000000000  2.1890000000 -0.0000000000 -0.0000000000  3.1550000000  0.0000000000 -0.0000000000  0.0000000000
Fe  0.0000000000  2.9850000000  2.9850000000 -0.0000000000 -0.0000000000  0.0000000000  1.2447000000  0.0000000000 -0.0000000000  2.1890000000  0.0000000000 -0.0000000000  3.1550000000  0.0000000000  0.0000000000  0.0000000000
Fe  2.9850000000  0.0000000000  2.9850000000 -0.0000000000  0.0000000000  0.0000000000  1.2447000000 -0.0000000000 -0.0000000000  2.1890000000 -0.0000000000 -0.0000000000  3.1550000000  0.0000000000  0.0000000000  0.0000000000
Fe  2.9850000000  2.9850000000  0.0000000000 -0.0000000000  0.0000000000 -0.0000000000  1.2447000000  0.0000000000 -0.0000000000  2.1890000000  0.0000000000 -0.0000000000  3.1550000000  0.0000000000 -0.0000000000  0.0000000000
Fe  2.9850000000  2.9850000000  2.9850000000  0.0000000000 -0.0000000000  0.0000000000  1.2447000000 -0.0000000000 -0.0000000000  2.1890000000 -0.0000000000 -0.0000000000  3.1550000000  0.0000000000 -0.0000000000  0.0000000000
Rh  1.4925000000  1.4925000000  1.4925000000  0.0000000000  0.0000000000 -0.0000000000  1.3403000000  0.0000000000 -0.0000000000  0.6630000000  0.0000000000 -0.0000000000  1.0310000000  0.0000000000  0.0000000000  0.0000000000
Rh  4.4775000000  4.4775000000  4.4775000000 -0.0000000000  0.0000000000  0.0000000000  1.3403000000 -0.0000000000  0.0000000000  0.6630000000 -0.0000000000  0.0000000000  1.0310000000 -0.0000000000  0.0000000000  0.0000000000
Rh  4.4775000000  4.4775000000  1.4925000000 -0.0000000000  0.0000000000 -0.0000000000  1.3403000000  0.0000000000  0.0000000000  0.6630000000  0.0000000000  0.0000000000  1.0310000000  0.0000000000  0.0000000000  0.0000000000
Rh  1.4925000000  1.4925000000  4.4775000000  0.0000000000 -0.0000000000  0.0000000000  1.3403000000 -0.0000000000  0.0000000000  0.6630000000 -0.0000000000  0.0000000000  1.0310000000  0.0000000000  0.0000000000  0.0000000000
Rh  4.4775000000  1.4925000000  4.4775000000  0.0000000000  0.0000000000  0.0000000000  1.3403000000 -0.0000000000  0.0000000000  0.6630000000 -0.0000000000  0.0000000000  1.0310000000  0.0000000000  0.0000000000  0.0000000000
Rh  1.4925000000  4.4775000000  1.4925000000 -0.0000000000 -0.0000000000 -0.0000000000  1.3403000000 -0.0000000000  0.0000000000  0.6630000000 -0.0000000000  0.0000000000  1.0310000000  0.0000000000  0.0000000000  0.0000000000
Rh  1.4925000000  4.4775000000  4.4775000000 -0.0000000000 -0.0000000000  0.0000000000  1.3403000000  0.0000000000  0.0000000000  0.6630000000  0.0000000000  0.0000000000  1.0310000000 -0.0000000000  0.0000000000  0.0000000000
Rh  4.4775000000  1.4925000000  1.4925000000  0.0000000000  0.0000000000 -0.0000000000  1.3403000000  0.0000000000  0.0000000000  0.6630000000  0.0000000000  0.0000000000  1.0310000000  0.0000000000  0.0000000000  0.0000000000
