       N       E                     dE             d eps       ncg     rms           ort

 E_p =  0.00000E+00  lambda =  0.200E+01
<lVp>=  0.00000E+00
 DBL =  0.00000E+00
 ion        MW_int                 M_int
  1  0.000  0.000  1.595    0.000  0.000  2.568
  2  0.000  0.000  1.595    0.000  0.000  2.568
  3  0.000  0.000  1.595    0.000  0.000  2.568
  4  0.000  0.000  1.595    0.000  0.000  2.568
  5  0.000  0.000  1.595    0.000  0.000  2.568
  6  0.000  0.000  1.595    0.000  0.000  2.568
  7  0.000  0.000  1.595    0.000  0.000  2.568
  8  0.000  0.000  1.595    0.000  0.000  2.568
  9  0.000  0.000  0.511    0.000  0.000  1.044
 10  0.000  0.000  0.511    0.000  0.000  1.044
 11  0.000  0.000  0.511    0.000  0.000  1.044
 12  0.000  0.000  0.511    0.000  0.000  1.044
 13  0.000  0.000  0.511    0.000  0.000  1.044
 14  0.000  0.000  0.511    0.000  0.000  1.044
 15  0.000  0.000  0.511    0.000  0.000  1.044
 16  0.000  0.000  0.511    0.000  0.000  1.044
DAV:   1     0.888483102013E+03    0.88848E+03   -0.44745E+04  1200   0.110E+03  

 E_p =  0.00000E+00  lambda =  0.200E+01
<lVp>=  0.00000E+00
 DBL =  0.00000E+00
 ion        MW_int                 M_int
  1  0.000  0.000  1.595    0.000  0.000  2.568
  2  0.000  0.000  1.595    0.000  0.000  2.568
  3  0.000  0.000  1.595    0.000  0.000  2.568
  4  0.000  0.000  1.595    0.000  0.000  2.568
  5  0.000  0.000  1.595    0.000  0.000  2.568
  6  0.000  0.000  1.595    0.000  0.000  2.568
  7  0.000  0.000  1.595    0.000  0.000  2.568
  8  0.000  0.000  1.595    0.000  0.000  2.568
  9  0.000  0.000  0.511    0.000  0.000  1.044
 10  0.000  0.000  0.511    0.000  0.000  1.044
 11  0.000  0.000  0.511    0.000  0.000  1.044
 12  0.000  0.000  0.511    0.000  0.000  1.044
 13  0.000  0.000  0.511    0.000  0.000  1.044
 14  0.000  0.000  0.511    0.000  0.000  1.044
 15  0.000  0.000  0.511    0.000  0.000  1.044
 16  0.000  0.000  0.511    0.000  0.000  1.044
DAV:   2    -0.389532857488E+02   -0.92744E+03   -0.85575E+03  1200   0.291E+02  

 E_p =  0.00000E+00  lambda =  0.200E+01
<lVp>=  0.00000E+00
 DBL =  0.00000E+00
 ion        MW_int                 M_int
  1  0.000  0.000  1.595    0.000  0.000  2.568
  2  0.000  0.000  1.595    0.000  0.000  2.568
  3  0.000  0.000  1.595    0.000  0.000  2.568
  4  0.000  0.000  1.595    0.000  0.000  2.568
  5  0.000  0.000  1.595    0.000  0.000  2.568
  6  0.000  0.000  1.595    0.000  0.000  2.568
  7  0.000  0.000  1.595    0.000  0.000  2.568
  8  0.000  0.000  1.595    0.000  0.000  2.568
  9  0.000  0.000  0.511    0.000  0.000  1.044
 10  0.000  0.000  0.511    0.000  0.000  1.044
 11  0.000  0.000  0.511    0.000  0.000  1.044
 12  0.000  0.000  0.511    0.000  0.000  1.044
 13  0.000  0.000  0.511    0.000  0.000  1.044
 14  0.000  0.000  0.511    0.000  0.000  1.044
 15  0.000  0.000  0.511    0.000  0.000  1.044
 16  0.000  0.000  0.511    0.000  0.000  1.044
DAV:   3    -0.134112647346E+03   -0.95159E+02   -0.75417E+02  1200   0.106E+02  

 E_p =  0.00000E+00  lambda =  0.200E+01
<lVp>=  0.00000E+00
 DBL =  0.00000E+00
 ion        MW_int                 M_int
  1  0.000  0.000  1.595    0.000  0.000  2.568
  2  0.000  0.000  1.595    0.000  0.000  2.568
  3  0.000  0.000  1.595    0.000  0.000  2.568
  4  0.000  0.000  1.595    0.000  0.000  2.568
  5  0.000  0.000  1.595    0.000  0.000  2.568
  6  0.000  0.000  1.595    0.000  0.000  2.568
  7  0.000  0.000  1.595    0.000  0.000  2.568
  8  0.000  0.000  1.595    0.000  0.000  2.568
  9  0.000  0.000  0.511    0.000  0.000  1.044
 10  0.000  0.000  0.511    0.000  0.000  1.044
 11  0.000  0.000  0.511    0.000  0.000  1.044
 12  0.000  0.000  0.511    0.000  0.000  1.044
 13  0.000  0.000  0.511    0.000  0.000  1.044
 14  0.000  0.000  0.511    0.000  0.000  1.044
 15  0.000  0.000  0.511    0.000  0.000  1.044
 16  0.000  0.000  0.511    0.000  0.000  1.044
DAV:   4    -0.139003205168E+03   -0.48906E+01   -0.47288E+01  1200   0.269E+01  

 E_p =  0.00000E+00  lambda =  0.200E+01
<lVp>=  0.00000E+00
 DBL =  0.00000E+00
 ion        MW_int                 M_int
  1  0.000  0.000  1.595    0.000  0.000  2.568
  2  0.000  0.000  1.595    0.000  0.000  2.568
  3  0.000  0.000  1.595    0.000  0.000  2.568
  4  0.000  0.000  1.595    0.000  0.000  2.568
  5  0.000  0.000  1.595    0.000  0.000  2.568
  6  0.000  0.000  1.595    0.000  0.000  2.568
  7  0.000  0.000  1.595    0.000  0.000  2.568
  8  0.000  0.000  1.595    0.000  0.000  2.568
  9  0.000  0.000  0.511    0.000  0.000  1.044
 10  0.000  0.000  0.511    0.000  0.000  1.044
 11  0.000  0.000  0.511    0.000  0.000  1.044
 12  0.000  0.000  0.511    0.000  0.000  1.044
 13  0.000  0.000  0.511    0.000  0.000  1.044
 14  0.000  0.000  0.511    0.000  0.000  1.044
 15  0.000  0.000  0.511    0.000  0.000  1.044
 16  0.000  0.000  0.511    0.000  0.000  1.044
DAV:   5    -0.139122455545E+03   -0.11925E+00   -0.11902E+00  1200   0.343E+00  

 E_p =  0.12101E-34  lambda =  0.200E+01
<lVp>=  0.24201E-34
 DBL = -0.12101E-34
 ion        MW_int                 M_int
  1  0.000 -0.000  2.040    0.000 -0.000  3.118
  2  0.000 -0.000  2.040    0.000 -0.000  3.118
  3  0.000 -0.000  2.040    0.000 -0.000  3.118
  4  0.000 -0.000  2.040    0.000 -0.000  3.118
  5  0.000 -0.000  2.040    0.000 -0.000  3.118
  6  0.000 -0.000  2.040    0.000 -0.000  3.118
  7  0.000 -0.000  2.040    0.000 -0.000  3.118
  8  0.000 -0.000  2.040    0.000 -0.000  3.118
  9 -0.000 -0.000  0.340   -0.000 -0.000  0.594
 10 -0.000 -0.000  0.340   -0.000 -0.000  0.594
 11 -0.000 -0.000  0.340   -0.000 -0.000  0.594
 12 -0.000 -0.000  0.340   -0.000 -0.000  0.594
 13  0.000 -0.000  0.340    0.000 -0.000  0.594
 14 -0.000 -0.000  0.340   -0.000 -0.000  0.594
 15 -0.000 -0.000  0.340   -0.000 -0.000  0.594
 16 -0.000 -0.000  0.340   -0.000 -0.000  0.594
SDA:   6    -0.237142368802E+02    0.11541E+03   -0.11902E+00  1200   0.139E+04   0.000E+00

 E_p =  0.13737E-32  lambda =  0.200E+01
<lVp>=  0.27473E-32
 DBL = -0.13737E-32
 ion        MW_int                 M_int
  1 -0.000  0.000  0.941   -0.000  0.000  1.333
  2 -0.000 -0.000  0.941   -0.000 -0.000  1.333
  3  0.000  0.000  0.941    0.000  0.000  1.333
  4  0.000  0.000  0.941    0.000  0.000  1.333
  5  0.000 -0.000  0.941    0.000 -0.000  1.333
  6 -0.000 -0.000  0.941   -0.000 -0.000  1.333
  7  0.000  0.000  0.941    0.000  0.000  1.333
  8  0.000 -0.000  0.941    0.000 -0.000  1.333
  9 -0.000  0.000  0.373    0.000 -0.000  0.679
 10  0.000  0.000  0.373    0.000  0.000  0.679
 11  0.000  0.000  0.373    0.000  0.000  0.679
 12  0.000  0.000  0.373    0.000  0.000  0.679
 13 -0.000  0.000  0.373   -0.000  0.000  0.679
 14 -0.000 -0.000  0.373    0.000 -0.000  0.679
 15  0.000  0.000  0.373    0.000  0.000  0.679
 16  0.000  0.000  0.373    0.000  0.000  0.679

 E_p =  0.31370E-35  lambda =  0.200E+01
<lVp>=  0.62739E-35
 DBL = -0.31370E-35
 ion        MW_int                 M_int
  1 -0.000 -0.000  2.030   -0.000 -0.000  2.980
  2 -0.000 -0.000  2.030    0.000 -0.000  2.980
  3 -0.000 -0.000  2.030    0.000 -0.000  2.980
  4 -0.000 -0.000  2.030   -0.000 -0.000  2.980
  5 -0.000 -0.000  2.030   -0.000 -0.000  2.980
  6  0.000 -0.000  2.030    0.000 -0.000  2.980
  7 -0.000 -0.000  2.030   -0.000 -0.000  2.980
  8  0.000 -0.000  2.030    0.000 -0.000  2.980
  9 -0.000 -0.000  0.469   -0.000 -0.000  0.791
 10 -0.000 -0.000  0.469   -0.000 -0.000  0.791
 11 -0.000  0.000  0.469   -0.000  0.000  0.791
 12 -0.000 -0.000  0.469   -0.000 -0.000  0.791
 13 -0.000 -0.000  0.469   -0.000 -0.000  0.791
 14 -0.000 -0.000  0.469   -0.000 -0.000  0.791
 15 -0.000 -0.000  0.469   -0.000 -0.000  0.791
 16 -0.000 -0.000  0.469   -0.000 -0.000  0.791

 E_p =  0.19937E-34  lambda =  0.200E+01
<lVp>=  0.39873E-34
 DBL = -0.19937E-34
 ion        MW_int                 M_int
  1  0.000  0.000  1.941    0.000  0.000  2.811
  2  0.000 -0.000  1.941    0.000 -0.000  2.811
  3  0.000  0.000  1.941    0.000  0.000  2.811
  4  0.000 -0.000  1.941    0.000 -0.000  2.811
  5  0.000 -0.000  1.941    0.000 -0.000  2.811
  6  0.000 -0.000  1.941    0.000 -0.000  2.811
  7  0.000  0.000  1.941    0.000  0.000  2.811
  8  0.000 -0.000  1.941    0.000 -0.000  2.811
  9  0.000  0.000  0.523    0.000  0.000  0.888
 10  0.000 -0.000  0.523    0.000 -0.000  0.888
 11  0.000 -0.000  0.523    0.000 -0.000  0.888
 12  0.000 -0.000  0.523    0.000 -0.000  0.888
 13  0.000  0.000  0.523    0.000  0.000  0.888
 14  0.000  0.000  0.523    0.000  0.000  0.888
 15  0.000  0.000  0.523    0.000  0.000  0.888
 16  0.000  0.000  0.523    0.000  0.000  0.888

 E_p =  0.47596E-35  lambda =  0.200E+01
<lVp>=  0.95193E-35
 DBL = -0.47596E-35
 ion        MW_int                 M_int
  1 -0.000 -0.000  2.014   -0.000 -0.000  2.947
  2  0.000  0.000  2.014    0.000  0.000  2.947
  3 -0.000  0.000  2.014   -0.000  0.000  2.947
  4 -0.000 -0.000  2.014   -0.000 -0.000  2.947
  5  0.000 -0.000  2.014    0.000 -0.000  2.947
  6  0.000  0.000  2.014    0.000  0.000  2.947
  7 -0.000  0.000  2.014   -0.000  0.000  2.947
  8 -0.000  0.000  2.014    0.000  0.000  2.947
  9 -0.000  0.000  0.487   -0.000  0.000  0.822
 10 -0.000  0.000  0.487   -0.000  0.000  0.822
 11 -0.000  0.000  0.487   -0.000  0.000  0.822
 12 -0.000  0.000  0.487   -0.000  0.000  0.822
 13  0.000  0.000  0.487    0.000  0.000  0.822
 14 -0.000  0.000  0.487   -0.000  0.000  0.822
 15 -0.000  0.000  0.487   -0.000  0.000  0.822
 16 -0.000  0.000  0.487   -0.000  0.000  0.822
CGA:   7    -0.116739792525E+03   -0.93026E+02   -0.93702E+02  1200   0.287E+02  -0.534E+02

 E_p =  0.61862E-35  lambda =  0.200E+01
<lVp>=  0.12372E-34
 DBL = -0.61862E-35
 ion        MW_int                 M_int
  1  0.000 -0.000  2.111    0.000 -0.000  3.085
  2  0.000  0.000  2.111    0.000  0.000  3.085
  3  0.000 -0.000  2.111    0.000 -0.000  3.085
  4  0.000 -0.000  2.111    0.000 -0.000  3.085
  5  0.000 -0.000  2.111    0.000 -0.000  3.085
  6  0.000  0.000  2.111    0.000  0.000  3.085
  7  0.000 -0.000  2.111    0.000 -0.000  3.085
  8  0.000 -0.000  2.111    0.000 -0.000  3.085
  9  0.000  0.000  0.511    0.000  0.000  0.847
 10 -0.000  0.000  0.511   -0.000  0.000  0.847
 11  0.000  0.000  0.511    0.000  0.000  0.847
 12  0.000  0.000  0.511    0.000  0.000  0.847
 13 -0.000  0.000  0.511   -0.000  0.000  0.847
 14  0.000  0.000  0.511    0.000  0.000  0.847
 15  0.000  0.000  0.511    0.000  0.000  0.847
 16  0.000 -0.000  0.511    0.000 -0.000  0.847

 E_p =  0.25521E-35  lambda =  0.200E+01
<lVp>=  0.51042E-35
 DBL = -0.25521E-35
 ion        MW_int                 M_int
  1  0.000 -0.000  2.112    0.000 -0.000  3.086
  2 -0.000 -0.000  2.112   -0.000 -0.000  3.086
  3 -0.000 -0.000  2.112   -0.000 -0.000  3.086
  4  0.000  0.000  2.112    0.000  0.000  3.086
  5  0.000 -0.000  2.112    0.000 -0.000  3.086
  6 -0.000 -0.000  2.112   -0.000 -0.000  3.086
  7  0.000 -0.000  2.112    0.000 -0.000  3.086
  8 -0.000  0.000  2.112   -0.000  0.000  3.086
  9  0.000 -0.000  0.511    0.000 -0.000  0.848
 10  0.000  0.000  0.511    0.000  0.000  0.848
 11  0.000  0.000  0.511    0.000  0.000  0.848
 12 -0.000 -0.000  0.511   -0.000 -0.000  0.848
 13 -0.000 -0.000  0.511   -0.000 -0.000  0.848
 14  0.000  0.000  0.511    0.000  0.000  0.848
 15  0.000 -0.000  0.511    0.000 -0.000  0.848
 16  0.000  0.000  0.511    0.000  0.000  0.848
CGA:   8    -0.121940850690E+03   -0.52011E+01   -0.52047E+01  1200   0.118E+02  -0.994E+00

 E_p =  0.86816E-35  lambda =  0.200E+01
<lVp>=  0.17363E-34
 DBL = -0.86816E-35
 ion        MW_int                 M_int
  1 -0.000 -0.000  2.096   -0.000 -0.000  3.044
  2  0.000  0.000  2.096   -0.000  0.000  3.044
  3 -0.000 -0.000  2.096   -0.000 -0.000  3.044
  4  0.000  0.000  2.096    0.000  0.000  3.044
  5 -0.000  0.000  2.096   -0.000 -0.000  3.044
  6  0.000 -0.000  2.096    0.000 -0.000  3.044
  7  0.000  0.000  2.096    0.000  0.000  3.044
  8 -0.000 -0.000  2.096   -0.000 -0.000  3.044
  9 -0.000  0.000  0.587   -0.000  0.000  0.954
 10 -0.000  0.000  0.587   -0.000  0.000  0.954
 11 -0.000  0.000  0.587   -0.000  0.000  0.954
 12 -0.000  0.000  0.587   -0.000  0.000  0.954
 13 -0.000 -0.000  0.587   -0.000 -0.000  0.954
 14 -0.000  0.000  0.587   -0.000  0.000  0.954
 15 -0.000 -0.000  0.587   -0.000 -0.000  0.954
 16 -0.000  0.000  0.587   -0.000  0.000  0.954

 E_p =  0.16785E-34  lambda =  0.200E+01
<lVp>=  0.33570E-34
 DBL = -0.16785E-34
 ion        MW_int                 M_int
  1 -0.000  0.000  2.101   -0.000  0.000  3.056
  2 -0.000  0.000  2.101   -0.000  0.000  3.056
  3 -0.000  0.000  2.101   -0.000  0.000  3.056
  4 -0.000  0.000  2.101   -0.000  0.000  3.056
  5 -0.000  0.000  2.101   -0.000  0.000  3.056
  6 -0.000  0.000  2.101   -0.000  0.000  3.056
  7 -0.000  0.000  2.101   -0.000  0.000  3.056
  8 -0.000  0.000  2.101   -0.000  0.000  3.056
  9 -0.000  0.000  0.573   -0.000  0.000  0.935
 10  0.000  0.000  0.573    0.000  0.000  0.935
 11  0.000  0.000  0.573    0.000  0.000  0.935
 12  0.000  0.000  0.573    0.000  0.000  0.935
 13 -0.000  0.000  0.573   -0.000  0.000  0.935
 14 -0.000  0.000  0.573   -0.000  0.000  0.935
 15  0.000  0.000  0.573    0.000  0.000  0.935
 16 -0.000  0.000  0.573   -0.000  0.000  0.935
CGA:   9    -0.123477855320E+03   -0.15370E+01   -0.16378E+01  1200   0.391E+01   0.571E+00

 E_p =  0.13504E-34  lambda =  0.200E+01
<lVp>=  0.27008E-34
 DBL = -0.13504E-34
 ion        MW_int                 M_int
  1 -0.000 -0.000  2.124   -0.000 -0.000  3.092
  2  0.000 -0.000  2.124    0.000 -0.000  3.092
  3  0.000 -0.000  2.124    0.000 -0.000  3.092
  4 -0.000 -0.000  2.124   -0.000 -0.000  3.092
  5  0.000 -0.000  2.124    0.000 -0.000  3.092
  6  0.000 -0.000  2.124    0.000 -0.000  3.092
  7 -0.000 -0.000  2.124   -0.000 -0.000  3.092
  8  0.000 -0.000  2.124    0.000 -0.000  3.092
  9  0.000 -0.000  0.605    0.000 -0.000  0.974
 10  0.000 -0.000  0.605    0.000 -0.000  0.974
 11  0.000 -0.000  0.605    0.000 -0.000  0.974
 12  0.000 -0.000  0.605    0.000 -0.000  0.974
 13  0.000 -0.000  0.605    0.000 -0.000  0.974
 14  0.000 -0.000  0.605    0.000 -0.000  0.974
 15  0.000 -0.000  0.605    0.000 -0.000  0.974
 16  0.000 -0.000  0.605    0.000 -0.000  0.974

 E_p =  0.20936E-34  lambda =  0.200E+01
<lVp>=  0.41873E-34
 DBL = -0.20936E-34
 ion        MW_int                 M_int
  1  0.000 -0.000  2.125    0.000 -0.000  3.093
  2 -0.000 -0.000  2.125   -0.000 -0.000  3.093
  3  0.000 -0.000  2.125    0.000 -0.000  3.093
  4  0.000 -0.000  2.125    0.000 -0.000  3.093
  5  0.000 -0.000  2.125    0.000 -0.000  3.093
  6 -0.000 -0.000  2.125   -0.000 -0.000  3.093
  7  0.000 -0.000  2.125    0.000 -0.000  3.093
  8 -0.000 -0.000  2.125   -0.000 -0.000  3.093
  9 -0.000 -0.000  0.607   -0.000 -0.000  0.976
 10  0.000 -0.000  0.607    0.000 -0.000  0.976
 11  0.000 -0.000  0.607    0.000 -0.000  0.976
 12  0.000 -0.000  0.607    0.000 -0.000  0.976
 13 -0.000 -0.000  0.607    0.000 -0.000  0.976
 14  0.000 -0.000  0.607    0.000 -0.000  0.976
 15  0.000 -0.000  0.607    0.000 -0.000  0.976
 16 -0.000 -0.000  0.607   -0.000 -0.000  0.976
CGA:  10    -0.124285966675E+03   -0.80811E+00   -0.80587E+00  1200   0.106E+01   0.714E-01

 E_p =  0.11781E-34  lambda =  0.200E+01
<lVp>=  0.23561E-34
 DBL = -0.11781E-34
 ion        MW_int                 M_int
  1  0.000 -0.000  2.123    0.000 -0.000  3.081
  2  0.000  0.000  2.123    0.000  0.000  3.081
  3 -0.000 -0.000  2.123   -0.000 -0.000  3.081
  4  0.000  0.000  2.123    0.000  0.000  3.081
  5  0.000 -0.000  2.123    0.000 -0.000  3.081
  6  0.000  0.000  2.123    0.000  0.000  3.081
  7  0.000  0.000  2.123    0.000  0.000  3.081
  8  0.000 -0.000  2.123    0.000  0.000  3.081
  9 -0.000  0.000  0.627   -0.000  0.000  1.000
 10  0.000  0.000  0.627    0.000  0.000  1.000
 11 -0.000  0.000  0.627   -0.000  0.000  1.000
 12 -0.000  0.000  0.627   -0.000  0.000  1.000
 13 -0.000  0.000  0.627   -0.000  0.000  1.000
 14 -0.000  0.000  0.627   -0.000  0.000  1.000
 15 -0.000  0.000  0.627   -0.000  0.000  1.000
 16 -0.000  0.000  0.627   -0.000  0.000  1.000

 E_p =  0.92743E-35  lambda =  0.200E+01
<lVp>=  0.18549E-34
 DBL = -0.92743E-35
 ion        MW_int                 M_int
  1 -0.000  0.000  2.121   -0.000  0.000  3.076
  2 -0.000  0.000  2.121   -0.000  0.000  3.076
  3 -0.000  0.000  2.121   -0.000  0.000  3.076
  4 -0.000  0.000  2.121   -0.000  0.000  3.076
  5 -0.000  0.000  2.121   -0.000  0.000  3.076
  6 -0.000  0.000  2.121   -0.000  0.000  3.076
  7 -0.000  0.000  2.121   -0.000  0.000  3.076
  8 -0.000  0.000  2.121   -0.000  0.000  3.076
  9 -0.000  0.000  0.632   -0.000  0.000  1.004
 10  0.000  0.000  0.632    0.000  0.000  1.004
 11 -0.000  0.000  0.632   -0.000  0.000  1.004
 12 -0.000  0.000  0.632   -0.000  0.000  1.004
 13 -0.000 -0.000  0.632   -0.000  0.000  1.004
 14 -0.000  0.000  0.632   -0.000  0.000  1.004
 15 -0.000  0.000  0.632   -0.000  0.000  1.004
 16  0.000  0.000  0.632    0.000  0.000  1.004
 trl  11    -0.124517001237E+03   -0.23103E+00   -0.23675E+00  1200   0.107E+01  -0.215E+00

 E_p =  0.11643E-34  lambda =  0.200E+01
<lVp>=  0.23287E-34
 DBL = -0.11643E-34
 ion        MW_int                 M_int
  1  0.000 -0.000  2.122    0.000 -0.000  3.079
  2  0.000 -0.000  2.122    0.000 -0.000  3.079
  3  0.000 -0.000  2.122    0.000 -0.000  3.079
  4  0.000 -0.000  2.122    0.000 -0.000  3.079
  5  0.000 -0.000  2.122    0.000 -0.000  3.079
  6  0.000 -0.000  2.122    0.000 -0.000  3.079
  7  0.000 -0.000  2.122    0.000 -0.000  3.079
  8  0.000 -0.000  2.122    0.000 -0.000  3.079
  9  0.000 -0.000  0.629    0.000 -0.000  1.001
 10  0.000 -0.000  0.629    0.000 -0.000  1.001
 11 -0.000 -0.000  0.629   -0.000 -0.000  1.001
 12 -0.000 -0.000  0.629   -0.000 -0.000  1.001
 13  0.000 -0.000  0.629    0.000 -0.000  1.001
 14 -0.000 -0.000  0.629   -0.000 -0.000  1.001
 15 -0.000 -0.000  0.629   -0.000 -0.000  1.001
 16 -0.000 -0.000  0.629   -0.000 -0.000  1.001
CGA:  12    -0.124522104979E+03   -0.23614E+00   -0.23675E+00  1200   0.984E+00  -0.214E-01

 E_p =  0.23818E-34  lambda =  0.200E+01
<lVp>=  0.47636E-34
 DBL = -0.23818E-34
 ion        MW_int                 M_int
  1 -0.000  0.000  2.142    0.000  0.000  3.100
  2 -0.000  0.000  2.142    0.000  0.000  3.100
  3  0.000  0.000  2.142    0.000  0.000  3.100
  4  0.000 -0.000  2.142    0.000 -0.000  3.100
  5 -0.000 -0.000  2.142   -0.000 -0.000  3.100
  6 -0.000 -0.000  2.142   -0.000 -0.000  3.100
  7  0.000 -0.000  2.142    0.000 -0.000  3.100
  8 -0.000 -0.000  2.142   -0.000 -0.000  3.100
  9 -0.000 -0.000  0.640   -0.000 -0.000  1.006
 10  0.000 -0.000  0.640    0.000 -0.000  1.006
 11 -0.000 -0.000  0.640   -0.000 -0.000  1.006
 12  0.000 -0.000  0.640    0.000 -0.000  1.006
 13  0.000 -0.000  0.640    0.000 -0.000  1.006
 14 -0.000 -0.000  0.640   -0.000 -0.000  1.006
 15  0.000 -0.000  0.640    0.000 -0.000  1.006
 16 -0.000 -0.000  0.640   -0.000 -0.000  1.006

 E_p =  0.74828E-35  lambda =  0.200E+01
<lVp>=  0.14966E-34
 DBL = -0.74828E-35
 ion        MW_int                 M_int
  1 -0.000  0.000  2.145   -0.000  0.000  3.103
  2  0.000 -0.000  2.145    0.000 -0.000  3.103
  3  0.000  0.000  2.145    0.000  0.000  3.103
  4  0.000 -0.000  2.145    0.000 -0.000  3.103
  5 -0.000 -0.000  2.145   -0.000 -0.000  3.103
  6 -0.000  0.000  2.145   -0.000  0.000  3.103
  7  0.000 -0.000  2.145   -0.000 -0.000  3.103
  8 -0.000 -0.000  2.145   -0.000 -0.000  3.103
  9 -0.000 -0.000  0.642   -0.000 -0.000  1.006
 10  0.000 -0.000  0.642    0.000 -0.000  1.006
 11 -0.000 -0.000  0.642   -0.000 -0.000  1.006
 12 -0.000 -0.000  0.642   -0.000 -0.000  1.006
 13 -0.000 -0.000  0.642   -0.000 -0.000  1.006
 14  0.000 -0.000  0.642    0.000 -0.000  1.006
 15 -0.000 -0.000  0.642   -0.000 -0.000  1.006
 16 -0.000 -0.000  0.642   -0.000 -0.000  1.006
CGA:  13    -0.124747913056E+03   -0.22581E+00   -0.22331E+00  1200   0.117E+00   0.831E-01

 E_p =  0.32840E-35  lambda =  0.200E+01
<lVp>=  0.65680E-35
 DBL = -0.32840E-35
 ion        MW_int                 M_int
  1  0.000  0.000  2.159    0.000  0.000  3.120
  2  0.000  0.000  2.159    0.000  0.000  3.120
  3  0.000  0.000  2.159    0.000  0.000  3.120
  4  0.000  0.000  2.159    0.000  0.000  3.120
  5  0.000  0.000  2.159    0.000  0.000  3.120
  6  0.000  0.000  2.159    0.000  0.000  3.120
  7  0.000  0.000  2.159    0.000 -0.000  3.120
  8  0.000  0.000  2.159    0.000  0.000  3.120
  9 -0.000 -0.000  0.644   -0.000 -0.000  1.005
 10 -0.000 -0.000  0.644   -0.000 -0.000  1.005
 11 -0.000 -0.000  0.644   -0.000 -0.000  1.005
 12 -0.000  0.000  0.644   -0.000  0.000  1.005
 13 -0.000 -0.000  0.644   -0.000 -0.000  1.005
 14 -0.000  0.000  0.644   -0.000  0.000  1.005
 15 -0.000 -0.000  0.644   -0.000 -0.000  1.005
 16 -0.000  0.000  0.644   -0.000  0.000  1.005

 E_p =  0.41453E-35  lambda =  0.200E+01
<lVp>=  0.82906E-35
 DBL = -0.41453E-35
 ion        MW_int                 M_int
  1 -0.000  0.000  2.157   -0.000  0.000  3.118
  2 -0.000  0.000  2.157   -0.000  0.000  3.118
  3  0.000  0.000  2.157    0.000  0.000  3.118
  4  0.000  0.000  2.157    0.000  0.000  3.118
  5 -0.000  0.000  2.157   -0.000  0.000  3.118
  6  0.000  0.000  2.157    0.000  0.000  3.118
  7  0.000  0.000  2.157    0.000  0.000  3.118
  8 -0.000  0.000  2.157   -0.000  0.000  3.118
  9 -0.000  0.000  0.644   -0.000  0.000  1.005
 10 -0.000 -0.000  0.644   -0.000 -0.000  1.005
 11 -0.000  0.000  0.644   -0.000  0.000  1.005
 12 -0.000 -0.000  0.644   -0.000 -0.000  1.005
 13  0.000 -0.000  0.644    0.000 -0.000  1.005
 14 -0.000  0.000  0.644   -0.000  0.000  1.005
 15 -0.000 -0.000  0.644   -0.000 -0.000  1.005
 16 -0.000 -0.000  0.644   -0.000 -0.000  1.005
CGA:  14    -0.124767381679E+03   -0.19469E-01   -0.20753E-01  1200   0.114E+00   0.179E-01

 E_p =  0.60683E-35  lambda =  0.200E+01
<lVp>=  0.12137E-34
 DBL = -0.60683E-35
 ion        MW_int                 M_int
  1  0.000 -0.000  2.171    0.000 -0.000  3.132
  2  0.000 -0.000  2.171    0.000  0.000  3.132
  3  0.000 -0.000  2.171    0.000 -0.000  3.132
  4  0.000  0.000  2.171    0.000  0.000  3.132
  5  0.000 -0.000  2.171    0.000 -0.000  3.132
  6  0.000  0.000  2.171    0.000  0.000  3.132
  7  0.000 -0.000  2.171    0.000 -0.000  3.132
  8  0.000 -0.000  2.171    0.000 -0.000  3.132
  9  0.000 -0.000  0.649    0.000 -0.000  1.011
 10  0.000 -0.000  0.649    0.000 -0.000  1.011
 11 -0.000 -0.000  0.649   -0.000 -0.000  1.011
 12  0.000 -0.000  0.649    0.000 -0.000  1.011
 13 -0.000 -0.000  0.649   -0.000 -0.000  1.011
 14 -0.000 -0.000  0.649   -0.000 -0.000  1.011
 15  0.000 -0.000  0.649    0.000 -0.000  1.011
 16  0.000 -0.000  0.649    0.000 -0.000  1.011

 E_p =  0.10866E-34  lambda =  0.200E+01
<lVp>=  0.21732E-34
 DBL = -0.10866E-34
 ion        MW_int                 M_int
  1 -0.000  0.000  2.169   -0.000  0.000  3.129
  2 -0.000  0.000  2.169   -0.000  0.000  3.129
  3 -0.000  0.000  2.169   -0.000  0.000  3.129
  4 -0.000  0.000  2.169   -0.000  0.000  3.129
  5 -0.000  0.000  2.169   -0.000  0.000  3.129
  6 -0.000  0.000  2.169   -0.000  0.000  3.129
  7 -0.000  0.000  2.169   -0.000  0.000  3.129
  8 -0.000  0.000  2.169   -0.000  0.000  3.129
  9  0.000 -0.000  0.648    0.000 -0.000  1.009
 10  0.000 -0.000  0.648    0.000 -0.000  1.009
 11  0.000 -0.000  0.648   -0.000 -0.000  1.009
 12 -0.000 -0.000  0.648   -0.000 -0.000  1.009
 13 -0.000 -0.000  0.648   -0.000 -0.000  1.009
 14  0.000 -0.000  0.648    0.000 -0.000  1.009
 15  0.000  0.000  0.648    0.000  0.000  1.009
 16  0.000 -0.000  0.648    0.000 -0.000  1.009
CGA:  15    -0.124786229657E+03   -0.18848E-01   -0.20109E-01  1200   0.423E-01   0.160E-01

 E_p =  0.28462E-34  lambda =  0.200E+01
<lVp>=  0.56925E-34
 DBL = -0.28462E-34
 ion        MW_int                 M_int
  1 -0.000 -0.000  2.175   -0.000 -0.000  3.135
  2  0.000 -0.000  2.175    0.000 -0.000  3.135
  3  0.000 -0.000  2.175    0.000 -0.000  3.135
  4  0.000 -0.000  2.175    0.000 -0.000  3.135
  5  0.000 -0.000  2.175    0.000 -0.000  3.135
  6 -0.000 -0.000  2.175   -0.000 -0.000  3.135
  7 -0.000 -0.000  2.175   -0.000 -0.000  3.135
  8 -0.000 -0.000  2.175   -0.000 -0.000  3.135
  9  0.000 -0.000  0.652    0.000 -0.000  1.014
 10  0.000 -0.000  0.652    0.000 -0.000  1.014
 11  0.000 -0.000  0.652    0.000 -0.000  1.014
 12 -0.000 -0.000  0.652   -0.000 -0.000  1.014
 13 -0.000 -0.000  0.652   -0.000 -0.000  1.014
 14  0.000 -0.000  0.652    0.000 -0.000  1.014
 15 -0.000 -0.000  0.652    0.000 -0.000  1.014
 16  0.000 -0.000  0.652    0.000 -0.000  1.014

 E_p =  0.19448E-34  lambda =  0.200E+01
<lVp>=  0.38896E-34
 DBL = -0.19448E-34
 ion        MW_int                 M_int
  1 -0.000 -0.000  2.172   -0.000 -0.000  3.133
  2 -0.000 -0.000  2.172   -0.000 -0.000  3.133
  3 -0.000 -0.000  2.172   -0.000 -0.000  3.133
  4 -0.000 -0.000  2.172   -0.000 -0.000  3.133
  5  0.000 -0.000  2.172    0.000 -0.000  3.133
  6 -0.000 -0.000  2.172   -0.000 -0.000  3.133
  7 -0.000 -0.000  2.172   -0.000 -0.000  3.133
  8 -0.000 -0.000  2.172   -0.000 -0.000  3.133
  9 -0.000 -0.000  0.650   -0.000 -0.000  1.012
 10  0.000  0.000  0.650    0.000  0.000  1.012
 11  0.000 -0.000  0.650    0.000 -0.000  1.012
 12  0.000  0.000  0.650    0.000  0.000  1.012
 13  0.000  0.000  0.650    0.000  0.000  1.012
 14  0.000 -0.000  0.650    0.000 -0.000  1.012
 15  0.000  0.000  0.650    0.000  0.000  1.012
 16 -0.000 -0.000  0.650   -0.000 -0.000  1.012
CGA:  16    -0.124790725263E+03   -0.44956E-02   -0.52461E-02  1200   0.409E-01  -0.184E-02

 E_p =  0.87735E-35  lambda =  0.200E+01
<lVp>=  0.17547E-34
 DBL = -0.87735E-35
 ion        MW_int                 M_int
  1  0.000 -0.000  2.180    0.000 -0.000  3.142
  2 -0.000  0.000  2.180   -0.000  0.000  3.142
  3  0.000 -0.000  2.180    0.000 -0.000  3.142
  4  0.000 -0.000  2.180    0.000 -0.000  3.142
  5  0.000 -0.000  2.180    0.000 -0.000  3.142
  6 -0.000 -0.000  2.180   -0.000 -0.000  3.142
  7  0.000 -0.000  2.180    0.000 -0.000  3.142
  8  0.000  0.000  2.180    0.000  0.000  3.142
  9 -0.000 -0.000  0.655   -0.000 -0.000  1.019
 10 -0.000 -0.000  0.655   -0.000 -0.000  1.019
 11 -0.000 -0.000  0.655   -0.000 -0.000  1.019
 12 -0.000 -0.000  0.655   -0.000 -0.000  1.019
 13 -0.000 -0.000  0.655   -0.000 -0.000  1.019
 14  0.000 -0.000  0.655    0.000 -0.000  1.019
 15 -0.000 -0.000  0.655   -0.000 -0.000  1.019
 16  0.000 -0.000  0.655    0.000 -0.000  1.019

 E_p =  0.67411E-35  lambda =  0.200E+01
<lVp>=  0.13482E-34
 DBL = -0.67411E-35
 ion        MW_int                 M_int
  1  0.000 -0.000  2.178    0.000 -0.000  3.139
  2  0.000  0.000  2.178    0.000  0.000  3.139
  3 -0.000  0.000  2.178   -0.000  0.000  3.139
  4 -0.000 -0.000  2.178   -0.000 -0.000  3.139
  5 -0.000 -0.000  2.178   -0.000 -0.000  3.139
  6 -0.000 -0.000  2.178   -0.000 -0.000  3.139
  7 -0.000 -0.000  2.178   -0.000 -0.000  3.139
  8  0.000  0.000  2.178    0.000  0.000  3.139
  9 -0.000 -0.000  0.654   -0.000 -0.000  1.016
 10 -0.000 -0.000  0.654   -0.000 -0.000  1.016
 11 -0.000 -0.000  0.654   -0.000 -0.000  1.016
 12 -0.000 -0.000  0.654   -0.000 -0.000  1.016
 13 -0.000 -0.000  0.654   -0.000 -0.000  1.016
 14 -0.000 -0.000  0.654   -0.000 -0.000  1.016
 15 -0.000 -0.000  0.654   -0.000 -0.000  1.016
 16 -0.000 -0.000  0.654   -0.000 -0.000  1.016
CGA:  17    -0.124795055439E+03   -0.43302E-02   -0.45687E-02  1200   0.394E-01   0.669E-03

 E_p =  0.31621E-35  lambda =  0.200E+01
<lVp>=  0.63242E-35
 DBL = -0.31621E-35
 ion        MW_int                 M_int
  1  0.000 -0.000  2.188    0.000 -0.000  3.153
  2  0.000  0.000  2.188    0.000  0.000  3.153
  3  0.000  0.000  2.188    0.000  0.000  3.153
  4  0.000 -0.000  2.188    0.000 -0.000  3.153
  5  0.000  0.000  2.188    0.000  0.000  3.153
  6  0.000  0.000  2.188    0.000  0.000  3.153
  7  0.000  0.000  2.188    0.000  0.000  3.153
  8  0.000  0.000  2.188    0.000  0.000  3.153
  9  0.000 -0.000  0.658   -0.000 -0.000  1.023
 10  0.000 -0.000  0.658    0.000 -0.000  1.023
 11  0.000 -0.000  0.658    0.000 -0.000  1.023
 12  0.000 -0.000  0.658    0.000 -0.000  1.023
 13  0.000 -0.000  0.658    0.000 -0.000  1.023
 14  0.000  0.000  0.658    0.000  0.000  1.023
 15  0.000 -0.000  0.658    0.000 -0.000  1.023
 16  0.000 -0.000  0.658    0.000 -0.000  1.023

 E_p =  0.83041E-35  lambda =  0.200E+01
<lVp>=  0.16608E-34
 DBL = -0.83041E-35
 ion        MW_int                 M_int
  1  0.000 -0.000  2.183    0.000 -0.000  3.146
  2  0.000 -0.000  2.183    0.000 -0.000  3.146
  3  0.000 -0.000  2.183    0.000 -0.000  3.146
  4  0.000 -0.000  2.183    0.000 -0.000  3.146
  5  0.000 -0.000  2.183   -0.000 -0.000  3.146
  6 -0.000 -0.000  2.183   -0.000 -0.000  3.146
  7 -0.000 -0.000  2.183   -0.000 -0.000  3.146
  8  0.000 -0.000  2.183   -0.000 -0.000  3.146
  9 -0.000  0.000  0.656   -0.000  0.000  1.019
 10 -0.000  0.000  0.656   -0.000  0.000  1.019
 11 -0.000  0.000  0.656   -0.000  0.000  1.019
 12 -0.000 -0.000  0.656   -0.000 -0.000  1.019
 13 -0.000 -0.000  0.656   -0.000 -0.000  1.019
 14 -0.000  0.000  0.656   -0.000  0.000  1.019
 15 -0.000  0.000  0.656   -0.000  0.000  1.019
 16 -0.000  0.000  0.656   -0.000  0.000  1.019
CGA:  18    -0.124797444937E+03   -0.23895E-02   -0.32324E-02  1200   0.386E-01  -0.515E-02

 E_p =  0.16653E-34  lambda =  0.200E+01
<lVp>=  0.33305E-34
 DBL = -0.16653E-34
 ion        MW_int                 M_int
  1  0.000 -0.000  2.194    0.000 -0.000  3.162
  2  0.000 -0.000  2.194    0.000 -0.000  3.162
  3  0.000 -0.000  2.194    0.000 -0.000  3.162
  4  0.000 -0.000  2.194    0.000 -0.000  3.162
  5  0.000 -0.000  2.194    0.000 -0.000  3.162
  6 -0.000 -0.000  2.194   -0.000 -0.000  3.162
  7  0.000 -0.000  2.194    0.000 -0.000  3.162
  8  0.000 -0.000  2.194    0.000 -0.000  3.162
  9  0.000  0.000  0.660    0.000  0.000  1.025
 10  0.000  0.000  0.660    0.000  0.000  1.025
 11  0.000  0.000  0.660    0.000  0.000  1.025
 12  0.000  0.000  0.660    0.000  0.000  1.025
 13  0.000  0.000  0.660    0.000  0.000  1.025
 14  0.000  0.000  0.660    0.000  0.000  1.025
 15  0.000  0.000  0.660    0.000  0.000  1.025
 16  0.000  0.000  0.660    0.000  0.000  1.025

 E_p =  0.39581E-35  lambda =  0.200E+01
<lVp>=  0.79162E-35
 DBL = -0.39581E-35
 ion        MW_int                 M_int
  1 -0.000 -0.000  2.187    0.000 -0.000  3.152
  2  0.000 -0.000  2.187    0.000 -0.000  3.152
  3 -0.000 -0.000  2.187   -0.000 -0.000  3.152
  4  0.000 -0.000  2.187    0.000 -0.000  3.152
  5  0.000  0.000  2.187    0.000  0.000  3.152
  6  0.000 -0.000  2.187    0.000 -0.000  3.152
  7 -0.000 -0.000  2.187   -0.000 -0.000  3.152
  8 -0.000 -0.000  2.187   -0.000 -0.000  3.152
  9  0.000  0.000  0.657    0.000  0.000  1.022
 10  0.000  0.000  0.657    0.000  0.000  1.022
 11  0.000 -0.000  0.657    0.000 -0.000  1.022
 12  0.000  0.000  0.657    0.000  0.000  1.022
 13  0.000  0.000  0.657    0.000  0.000  1.022
 14  0.000  0.000  0.657    0.000  0.000  1.022
 15 -0.000  0.000  0.657   -0.000  0.000  1.022
 16 -0.000  0.000  0.657   -0.000  0.000  1.022
CGA:  19    -0.124799229065E+03   -0.17841E-02   -0.21830E-02  1200   0.286E-01  -0.321E-02

 E_p =  0.80949E-35  lambda =  0.200E+01
<lVp>=  0.16190E-34
 DBL = -0.80949E-35
 ion        MW_int                 M_int
  1 -0.000 -0.000  2.193   -0.000 -0.000  3.161
  2 -0.000 -0.000  2.193   -0.000 -0.000  3.161
  3 -0.000 -0.000  2.193   -0.000 -0.000  3.161
  4 -0.000 -0.000  2.193   -0.000 -0.000  3.161
  5  0.000 -0.000  2.193    0.000 -0.000  3.161
  6 -0.000 -0.000  2.193   -0.000 -0.000  3.161
  7 -0.000 -0.000  2.193   -0.000 -0.000  3.161
  8 -0.000 -0.000  2.193   -0.000 -0.000  3.161
  9 -0.000 -0.000  0.661   -0.000 -0.000  1.027
 10 -0.000  0.000  0.661   -0.000  0.000  1.027
 11 -0.000 -0.000  0.661   -0.000 -0.000  1.027
 12 -0.000 -0.000  0.661   -0.000 -0.000  1.027
 13 -0.000 -0.000  0.661   -0.000 -0.000  1.027
 14 -0.000 -0.000  0.661   -0.000 -0.000  1.027
 15 -0.000 -0.000  0.661   -0.000 -0.000  1.027
 16  0.000 -0.000  0.661    0.000 -0.000  1.027

 E_p =  0.70084E-35  lambda =  0.200E+01
<lVp>=  0.14017E-34
 DBL = -0.70084E-35
 ion        MW_int                 M_int
  1 -0.000 -0.000  2.189   -0.000 -0.000  3.155
  2 -0.000  0.000  2.189   -0.000  0.000  3.155
  3 -0.000 -0.000  2.189   -0.000 -0.000  3.155
  4  0.000 -0.000  2.189    0.000 -0.000  3.155
  5 -0.000  0.000  2.189   -0.000  0.000  3.155
  6 -0.000  0.000  2.189   -0.000  0.000  3.155
  7 -0.000  0.000  2.189   -0.000  0.000  3.155
  8 -0.000  0.000  2.189   -0.000  0.000  3.155
  9  0.000  0.000  0.659    0.000  0.000  1.023
 10 -0.000  0.000  0.659   -0.000  0.000  1.023
 11 -0.000  0.000  0.659   -0.000  0.000  1.023
 12 -0.000  0.000  0.659   -0.000  0.000  1.023
 13 -0.000  0.000  0.659   -0.000  0.000  1.023
 14 -0.000  0.000  0.659   -0.000  0.000  1.023
 15 -0.000  0.000  0.659   -0.000  0.000  1.023
 16  0.000  0.000  0.659   -0.000  0.000  1.023
 trl  20    -0.124799412365E+03   -0.18330E-03   -0.64686E-03  1200   0.262E-01  -0.183E-01

 E_p =  0.91564E-35  lambda =  0.200E+01
<lVp>=  0.18313E-34
 DBL = -0.91564E-35
 ion        MW_int                 M_int
  1  0.000  0.000  2.188    0.000  0.000  3.154
  2  0.000  0.000  2.188    0.000  0.000  3.154
  3  0.000  0.000  2.188    0.000  0.000  3.154
  4  0.000  0.000  2.188    0.000  0.000  3.154
  5  0.000  0.000  2.188    0.000  0.000  3.154
  6  0.000  0.000  2.188    0.000  0.000  3.154
  7  0.000  0.000  2.188    0.000  0.000  3.154
  8  0.000  0.000  2.188    0.000  0.000  3.154
  9 -0.000 -0.000  0.658    0.000 -0.000  1.023
 10  0.000 -0.000  0.658    0.000 -0.000  1.023
 11  0.000 -0.000  0.658    0.000 -0.000  1.023
 12  0.000 -0.000  0.658    0.000 -0.000  1.023
 13  0.000 -0.000  0.658    0.000 -0.000  1.023
 14  0.000  0.000  0.658    0.000  0.000  1.023
 15  0.000  0.000  0.658    0.000  0.000  1.023
 16  0.000 -0.000  0.658    0.000 -0.000  1.023
CGA:  21    -0.124800117252E+03   -0.88819E-03   -0.64686E-03  1200   0.328E-01  -0.120E-02

 E_p =  0.13239E-34  lambda =  0.200E+01
<lVp>=  0.26479E-34
 DBL = -0.13239E-34
 ion        MW_int                 M_int
  1 -0.000 -0.000  2.193   -0.000 -0.000  3.161
  2 -0.000 -0.000  2.193   -0.000 -0.000  3.161
  3 -0.000 -0.000  2.193   -0.000 -0.000  3.161
  4 -0.000 -0.000  2.193   -0.000 -0.000  3.161
  5 -0.000 -0.000  2.193   -0.000 -0.000  3.161
  6 -0.000 -0.000  2.193   -0.000 -0.000  3.161
  7 -0.000 -0.000  2.193   -0.000 -0.000  3.161
  8  0.000 -0.000  2.193    0.000 -0.000  3.161
  9  0.000  0.000  0.662    0.000  0.000  1.030
 10  0.000  0.000  0.662    0.000  0.000  1.030
 11 -0.000  0.000  0.662   -0.000  0.000  1.030
 12 -0.000  0.000  0.662   -0.000  0.000  1.030
 13 -0.000  0.000  0.662   -0.000  0.000  1.030
 14 -0.000  0.000  0.662   -0.000  0.000  1.030
 15  0.000  0.000  0.662    0.000  0.000  1.030
 16 -0.000  0.000  0.662   -0.000  0.000  1.030

 E_p =  0.60534E-35  lambda =  0.200E+01
<lVp>=  0.12107E-34
 DBL = -0.60534E-35
 ion        MW_int                 M_int
  1  0.000  0.000  2.190    0.000  0.000  3.157
  2  0.000 -0.000  2.190    0.000 -0.000  3.157
  3  0.000  0.000  2.190    0.000  0.000  3.157
  4  0.000  0.000  2.190    0.000  0.000  3.157
  5  0.000 -0.000  2.190    0.000 -0.000  3.157
  6 -0.000  0.000  2.190   -0.000  0.000  3.157
  7  0.000 -0.000  2.190    0.000 -0.000  3.157
  8  0.000  0.000  2.190    0.000  0.000  3.157
  9 -0.000  0.000  0.660   -0.000  0.000  1.025
 10 -0.000  0.000  0.660   -0.000  0.000  1.025
 11  0.000  0.000  0.660    0.000  0.000  1.025
 12 -0.000  0.000  0.660   -0.000  0.000  1.025
 13 -0.000  0.000  0.660   -0.000  0.000  1.025
 14 -0.000  0.000  0.660   -0.000  0.000  1.025
 15 -0.000  0.000  0.660   -0.000  0.000  1.025
 16 -0.000  0.000  0.660   -0.000  0.000  1.025
CGA:  22    -0.124800430746E+03   -0.31349E-03   -0.18458E-02  1200   0.327E-01  -0.461E-02

 E_p =  0.86244E-35  lambda =  0.200E+01
<lVp>=  0.17249E-34
 DBL = -0.86244E-35
 ion        MW_int                 M_int
  1  0.000  0.000  2.193    0.000  0.000  3.160
  2  0.000  0.000  2.193    0.000  0.000  3.160
  3  0.000  0.000  2.193    0.000  0.000  3.160
  4  0.000  0.000  2.193    0.000  0.000  3.160
  5  0.000  0.000  2.193    0.000  0.000  3.160
  6  0.000  0.000  2.193    0.000  0.000  3.160
  7  0.000  0.000  2.193    0.000  0.000  3.160
  8  0.000  0.000  2.193    0.000  0.000  3.160
  9 -0.000  0.000  0.664   -0.000  0.000  1.033
 10 -0.000  0.000  0.664   -0.000  0.000  1.033
 11 -0.000  0.000  0.664   -0.000  0.000  1.033
 12 -0.000  0.000  0.664   -0.000  0.000  1.033
 13 -0.000  0.000  0.664   -0.000  0.000  1.033
 14 -0.000  0.000  0.664   -0.000  0.000  1.033
 15 -0.000  0.000  0.664   -0.000  0.000  1.033
 16 -0.000  0.000  0.664   -0.000  0.000  1.033

 E_p =  0.33749E-35  lambda =  0.200E+01
<lVp>=  0.67498E-35
 DBL = -0.33749E-35
 ion        MW_int                 M_int
  1 -0.000 -0.000  2.191   -0.000 -0.000  3.158
  2 -0.000 -0.000  2.191   -0.000 -0.000  3.158
  3  0.000 -0.000  2.191    0.000 -0.000  3.158
  4  0.000 -0.000  2.191    0.000 -0.000  3.158
  5  0.000 -0.000  2.191    0.000 -0.000  3.158
  6 -0.000 -0.000  2.191   -0.000 -0.000  3.158
  7  0.000 -0.000  2.191    0.000 -0.000  3.158
  8  0.000 -0.000  2.191    0.000 -0.000  3.158
  9  0.000  0.000  0.661    0.000  0.000  1.028
 10  0.000  0.000  0.661    0.000  0.000  1.028
 11 -0.000 -0.000  0.661   -0.000 -0.000  1.028
 12  0.000  0.000  0.661    0.000  0.000  1.028
 13  0.000  0.000  0.661    0.000  0.000  1.028
 14  0.000 -0.000  0.661    0.000 -0.000  1.028
 15  0.000 -0.000  0.661    0.000 -0.000  1.028
 16 -0.000 -0.000  0.661   -0.000 -0.000  1.028
CGA:  23    -0.124801664649E+03   -0.12339E-02   -0.12194E-02  1200   0.155E-01  -0.452E-02

 E_p =  0.47977E-35  lambda =  0.200E+01
<lVp>=  0.95954E-35
 DBL = -0.47977E-35
 ion        MW_int                 M_int
  1  0.000  0.000  2.192    0.000  0.000  3.159
  2 -0.000  0.000  2.192   -0.000  0.000  3.159
  3  0.000  0.000  2.192    0.000  0.000  3.159
  4  0.000  0.000  2.192    0.000  0.000  3.159
  5  0.000  0.000  2.192    0.000  0.000  3.159
  6 -0.000  0.000  2.192   -0.000  0.000  3.159
  7  0.000  0.000  2.192    0.000  0.000  3.159
  8  0.000  0.000  2.192    0.000  0.000  3.159
  9  0.000  0.000  0.663    0.000  0.000  1.032
 10  0.000  0.000  0.663    0.000  0.000  1.032
 11  0.000  0.000  0.663    0.000  0.000  1.032
 12 -0.000  0.000  0.663   -0.000  0.000  1.032
 13 -0.000  0.000  0.663   -0.000  0.000  1.032
 14  0.000  0.000  0.663    0.000  0.000  1.032
 15 -0.000  0.000  0.663   -0.000  0.000  1.032
 16  0.000  0.000  0.663    0.000  0.000  1.032

 E_p =  0.66958E-35  lambda =  0.200E+01
<lVp>=  0.13392E-34
 DBL = -0.66958E-35
 ion        MW_int                 M_int
  1 -0.000 -0.000  2.191   -0.000 -0.000  3.158
  2 -0.000 -0.000  2.191   -0.000 -0.000  3.158
  3 -0.000 -0.000  2.191   -0.000 -0.000  3.158
  4 -0.000 -0.000  2.191   -0.000 -0.000  3.158
  5 -0.000 -0.000  2.191   -0.000 -0.000  3.158
  6 -0.000 -0.000  2.191   -0.000 -0.000  3.158
  7 -0.000 -0.000  2.191   -0.000 -0.000  3.158
  8 -0.000 -0.000  2.191   -0.000 -0.000  3.158
  9 -0.000  0.000  0.662   -0.000  0.000  1.029
 10 -0.000  0.000  0.662   -0.000  0.000  1.029
 11 -0.000  0.000  0.662   -0.000  0.000  1.029
 12 -0.000  0.000  0.662   -0.000  0.000  1.029
 13  0.000  0.000  0.662    0.000  0.000  1.029
 14 -0.000  0.000  0.662   -0.000  0.000  1.029
 15 -0.000  0.000  0.662   -0.000  0.000  1.029
 16 -0.000  0.000  0.662   -0.000  0.000  1.029
 trl  24    -0.124802077090E+03   -0.41244E-03   -0.44842E-03  1200   0.133E-01  -0.389E-02

 E_p =  0.12097E-35  lambda =  0.200E+01
<lVp>=  0.24194E-35
 DBL = -0.12097E-35
 ion        MW_int                 M_int
  1  0.000 -0.000  2.191    0.000 -0.000  3.158
  2  0.000  0.000  2.191    0.000  0.000  3.158
  3  0.000 -0.000  2.191    0.000 -0.000  3.158
  4  0.000 -0.000  2.191    0.000 -0.000  3.158
  5 -0.000 -0.000  2.191   -0.000 -0.000  3.158
  6 -0.000 -0.000  2.191   -0.000 -0.000  3.158
  7  0.000 -0.000  2.191    0.000 -0.000  3.158
  8 -0.000 -0.000  2.191   -0.000 -0.000  3.158
  9  0.000 -0.000  0.662    0.000 -0.000  1.029
 10  0.000 -0.000  0.662    0.000 -0.000  1.029
 11  0.000 -0.000  0.662   -0.000 -0.000  1.029
 12 -0.000 -0.000  0.662   -0.000 -0.000  1.029
 13 -0.000 -0.000  0.662   -0.000 -0.000  1.029
 14 -0.000 -0.000  0.662    0.000 -0.000  1.029
 15 -0.000  0.000  0.662   -0.000  0.000  1.029
 16  0.000 -0.000  0.662    0.000 -0.000  1.029
CGA:  25    -0.124802112488E+03   -0.44784E-03   -0.44842E-03  1200   0.102E-01   0.415E-04

 E_p =  0.49698E-35  lambda =  0.200E+01
<lVp>=  0.99397E-35
 DBL = -0.49698E-35
 ion        MW_int                 M_int
  1  0.000 -0.000  2.192    0.000 -0.000  3.159
  2  0.000 -0.000  2.192    0.000 -0.000  3.159
  3  0.000 -0.000  2.192    0.000 -0.000  3.159
  4  0.000 -0.000  2.192    0.000 -0.000  3.159
  5  0.000 -0.000  2.192    0.000 -0.000  3.159
  6  0.000 -0.000  2.192    0.000 -0.000  3.159
  7  0.000 -0.000  2.192    0.000 -0.000  3.159
  8  0.000 -0.000  2.192    0.000 -0.000  3.159
  9 -0.000  0.000  0.663   -0.000  0.000  1.031
 10 -0.000 -0.000  0.663   -0.000 -0.000  1.031
 11 -0.000 -0.000  0.663   -0.000 -0.000  1.031
 12 -0.000  0.000  0.663   -0.000  0.000  1.031
 13 -0.000  0.000  0.663   -0.000  0.000  1.031
 14 -0.000 -0.000  0.663   -0.000 -0.000  1.031
 15 -0.000 -0.000  0.663   -0.000 -0.000  1.031
 16 -0.000  0.000  0.663   -0.000  0.000  1.031

 E_p =  0.85310E-35  lambda =  0.200E+01
<lVp>=  0.17062E-34
 DBL = -0.85310E-35
 ion        MW_int                 M_int
  1  0.000 -0.000  2.191    0.000 -0.000  3.158
  2  0.000 -0.000  2.191    0.000 -0.000  3.158
  3 -0.000 -0.000  2.191   -0.000 -0.000  3.158
  4 -0.000 -0.000  2.191    0.000 -0.000  3.158
  5  0.000 -0.000  2.191    0.000 -0.000  3.158
  6  0.000 -0.000  2.191    0.000 -0.000  3.158
  7  0.000 -0.000  2.191    0.000 -0.000  3.158
  8  0.000 -0.000  2.191    0.000 -0.000  3.158
  9 -0.000  0.000  0.662   -0.000  0.000  1.030
 10 -0.000  0.000  0.662   -0.000  0.000  1.030
 11 -0.000 -0.000  0.662   -0.000 -0.000  1.030
 12  0.000  0.000  0.662    0.000  0.000  1.030
 13 -0.000  0.000  0.662   -0.000  0.000  1.030
 14  0.000  0.000  0.662    0.000  0.000  1.030
 15 -0.000 -0.000  0.662   -0.000 -0.000  1.030
 16 -0.000 -0.000  0.662   -0.000 -0.000  1.030
 trl  26    -0.124802457045E+03   -0.34456E-03   -0.36724E-03  1200   0.102E-01  -0.238E-02

 E_p =  0.30525E-35  lambda =  0.200E+01
<lVp>=  0.61049E-35
 DBL = -0.30525E-35
 ion        MW_int                 M_int
  1  0.000  0.000  2.191    0.000  0.000  3.158
  2  0.000  0.000  2.191    0.000  0.000  3.158
  3 -0.000  0.000  2.191   -0.000  0.000  3.158
  4 -0.000  0.000  2.191   -0.000  0.000  3.158
  5  0.000  0.000  2.191    0.000  0.000  3.158
  6 -0.000  0.000  2.191   -0.000  0.000  3.158
  7 -0.000  0.000  2.191   -0.000  0.000  3.158
  8 -0.000  0.000  2.191   -0.000  0.000  3.158
  9 -0.000  0.000  0.662   -0.000  0.000  1.030
 10 -0.000 -0.000  0.662   -0.000 -0.000  1.030
 11 -0.000  0.000  0.662   -0.000  0.000  1.030
 12 -0.000  0.000  0.662   -0.000  0.000  1.030
 13 -0.000 -0.000  0.662   -0.000 -0.000  1.030
 14 -0.000  0.000  0.662   -0.000  0.000  1.030
 15  0.000 -0.000  0.662    0.000 -0.000  1.030
 16 -0.000  0.000  0.662   -0.000  0.000  1.030
CGA:  27    -0.124802481418E+03   -0.36893E-03   -0.36724E-03  1200   0.107E-01  -0.157E-03

 E_p =  0.11415E-34  lambda =  0.200E+01
<lVp>=  0.22831E-34
 DBL = -0.11415E-34
 ion        MW_int                 M_int
  1 -0.000 -0.000  2.192    0.000 -0.000  3.159
  2 -0.000 -0.000  2.192   -0.000 -0.000  3.159
  3 -0.000  0.000  2.192    0.000  0.000  3.159
  4  0.000  0.000  2.192    0.000  0.000  3.159
  5  0.000  0.000  2.192    0.000  0.000  3.159
  6 -0.000 -0.000  2.192   -0.000 -0.000  3.159
  7  0.000 -0.000  2.192    0.000 -0.000  3.159
  8 -0.000  0.000  2.192   -0.000  0.000  3.159
  9  0.000  0.000  0.664    0.000  0.000  1.032
 10  0.000  0.000  0.664    0.000  0.000  1.032
 11 -0.000  0.000  0.664   -0.000  0.000  1.032
 12  0.000  0.000  0.664    0.000  0.000  1.032
 13  0.000  0.000  0.664    0.000  0.000  1.032
 14  0.000  0.000  0.664    0.000  0.000  1.032
 15  0.000  0.000  0.664    0.000  0.000  1.032
 16 -0.000  0.000  0.664   -0.000  0.000  1.032

 E_p =  0.16547E-35  lambda =  0.200E+01
<lVp>=  0.33094E-35
 DBL = -0.16547E-35
 ion        MW_int                 M_int
  1  0.000 -0.000  2.192    0.000 -0.000  3.158
  2  0.000 -0.000  2.192    0.000 -0.000  3.158
  3 -0.000 -0.000  2.192   -0.000 -0.000  3.158
  4 -0.000 -0.000  2.192   -0.000 -0.000  3.158
  5 -0.000 -0.000  2.192   -0.000 -0.000  3.158
  6  0.000  0.000  2.192    0.000  0.000  3.158
  7  0.000 -0.000  2.192    0.000 -0.000  3.158
  8  0.000 -0.000  2.192    0.000 -0.000  3.158
  9  0.000  0.000  0.663    0.000  0.000  1.031
 10 -0.000  0.000  0.663   -0.000  0.000  1.031
 11 -0.000 -0.000  0.663   -0.000 -0.000  1.031
 12 -0.000  0.000  0.663   -0.000  0.000  1.031
 13  0.000  0.000  0.663    0.000  0.000  1.031
 14 -0.000 -0.000  0.663    0.000 -0.000  1.031
 15 -0.000  0.000  0.663   -0.000  0.000  1.031
 16  0.000 -0.000  0.663    0.000 -0.000  1.031
CGA:  28    -0.124803048397E+03   -0.56698E-03   -0.53163E-03  1200   0.119E-01   0.134E-04

 E_p =  0.12157E-34  lambda =  0.200E+01
<lVp>=  0.24314E-34
 DBL = -0.12157E-34
 ion        MW_int                 M_int
  1  0.000 -0.000  2.192    0.000 -0.000  3.159
  2  0.000 -0.000  2.192    0.000 -0.000  3.159
  3  0.000 -0.000  2.192    0.000 -0.000  3.159
  4  0.000 -0.000  2.192    0.000 -0.000  3.159
  5  0.000 -0.000  2.192    0.000 -0.000  3.159
  6  0.000 -0.000  2.192    0.000 -0.000  3.159
  7  0.000 -0.000  2.192    0.000 -0.000  3.159
  8  0.000 -0.000  2.192    0.000 -0.000  3.159
  9  0.000  0.000  0.664    0.000  0.000  1.033
 10 -0.000  0.000  0.664   -0.000  0.000  1.033
 11 -0.000  0.000  0.664   -0.000  0.000  1.033
 12 -0.000  0.000  0.664   -0.000  0.000  1.033
 13 -0.000  0.000  0.664   -0.000  0.000  1.033
 14  0.000  0.000  0.664    0.000  0.000  1.033
 15 -0.000  0.000  0.664   -0.000  0.000  1.033
 16  0.000  0.000  0.664    0.000  0.000  1.033

 E_p =  0.77958E-35  lambda =  0.200E+01
<lVp>=  0.15592E-34
 DBL = -0.77958E-35
 ion        MW_int                 M_int
  1  0.000  0.000  2.192    0.000  0.000  3.159
  2 -0.000 -0.000  2.192   -0.000 -0.000  3.159
  3  0.000  0.000  2.192    0.000  0.000  3.159
  4  0.000  0.000  2.192    0.000  0.000  3.159
  5  0.000 -0.000  2.192    0.000 -0.000  3.159
  6  0.000  0.000  2.192    0.000  0.000  3.159
  7  0.000  0.000  2.192    0.000  0.000  3.159
  8  0.000 -0.000  2.192    0.000 -0.000  3.159
  9 -0.000  0.000  0.663   -0.000  0.000  1.031
 10 -0.000  0.000  0.663   -0.000  0.000  1.031
 11 -0.000  0.000  0.663   -0.000  0.000  1.031
 12 -0.000  0.000  0.663   -0.000  0.000  1.031
 13  0.000  0.000  0.663   -0.000  0.000  1.031
 14 -0.000  0.000  0.663   -0.000  0.000  1.031
 15 -0.000  0.000  0.663   -0.000  0.000  1.031
 16 -0.000  0.000  0.663   -0.000  0.000  1.031
CGA:  29    -0.124803434719E+03   -0.38632E-03   -0.44958E-03  1200   0.970E-02  -0.102E-02

 E_p =  0.49434E-35  lambda =  0.200E+01
<lVp>=  0.98868E-35
 DBL = -0.49434E-35
 ion        MW_int                 M_int
  1  0.000  0.000  2.191    0.000  0.000  3.158
  2 -0.000  0.000  2.191   -0.000  0.000  3.158
  3 -0.000  0.000  2.191   -0.000  0.000  3.158
  4  0.000  0.000  2.191    0.000  0.000  3.158
  5  0.000  0.000  2.191    0.000  0.000  3.158
  6  0.000  0.000  2.191    0.000  0.000  3.158
  7  0.000  0.000  2.191    0.000  0.000  3.158
  8  0.000  0.000  2.191    0.000  0.000  3.158
  9 -0.000 -0.000  0.664   -0.000 -0.000  1.033
 10  0.000  0.000  0.664    0.000  0.000  1.033
 11  0.000  0.000  0.664    0.000  0.000  1.033
 12 -0.000  0.000  0.664   -0.000  0.000  1.033
 13 -0.000  0.000  0.664   -0.000  0.000  1.033
 14 -0.000  0.000  0.664   -0.000  0.000  1.033
 15  0.000  0.000  0.664    0.000  0.000  1.033
 16 -0.000 -0.000  0.664   -0.000 -0.000  1.033

 E_p =  0.35390E-35  lambda =  0.200E+01
<lVp>=  0.70781E-35
 DBL = -0.35390E-35
 ion        MW_int                 M_int
  1  0.000  0.000  2.192    0.000  0.000  3.158
  2 -0.000  0.000  2.192   -0.000  0.000  3.158
  3  0.000  0.000  2.192    0.000  0.000  3.158
  4  0.000  0.000  2.192    0.000  0.000  3.158
  5 -0.000 -0.000  2.192   -0.000 -0.000  3.158
  6 -0.000  0.000  2.192   -0.000  0.000  3.158
  7  0.000  0.000  2.192    0.000  0.000  3.158
  8  0.000  0.000  2.192    0.000  0.000  3.158
  9 -0.000  0.000  0.664   -0.000  0.000  1.032
 10  0.000  0.000  0.664    0.000  0.000  1.032
 11  0.000  0.000  0.664    0.000  0.000  1.032
 12 -0.000 -0.000  0.664   -0.000 -0.000  1.032
 13  0.000  0.000  0.664    0.000  0.000  1.032
 14  0.000  0.000  0.664    0.000  0.000  1.032
 15  0.000  0.000  0.664    0.000  0.000  1.032
 16 -0.000 -0.000  0.664   -0.000 -0.000  1.032
CGA:  30    -0.124803706178E+03   -0.27146E-03   -0.27270E-03  1200   0.629E-02  -0.814E-04

 E_p =  0.12177E-34  lambda =  0.200E+01
<lVp>=  0.24353E-34
 DBL = -0.12177E-34
 ion        MW_int                 M_int
  1 -0.000  0.000  2.191   -0.000  0.000  3.157
  2  0.000  0.000  2.191    0.000  0.000  3.157
  3 -0.000  0.000  2.191   -0.000  0.000  3.157
  4  0.000  0.000  2.191    0.000  0.000  3.157
  5  0.000  0.000  2.191    0.000  0.000  3.157
  6  0.000  0.000  2.191    0.000  0.000  3.157
  7  0.000  0.000  2.191    0.000  0.000  3.157
  8  0.000  0.000  2.191    0.000  0.000  3.157
  9  0.000 -0.000  0.664    0.000 -0.000  1.032
 10 -0.000 -0.000  0.664   -0.000 -0.000  1.032
 11  0.000 -0.000  0.664    0.000 -0.000  1.032
 12 -0.000 -0.000  0.664   -0.000 -0.000  1.032
 13  0.000 -0.000  0.664   -0.000 -0.000  1.032
 14  0.000 -0.000  0.664    0.000 -0.000  1.032
 15 -0.000 -0.000  0.664   -0.000 -0.000  1.032
 16 -0.000 -0.000  0.664   -0.000 -0.000  1.032

 E_p =  0.98484E-35  lambda =  0.200E+01
<lVp>=  0.19697E-34
 DBL = -0.98484E-35
 ion        MW_int                 M_int
  1 -0.000 -0.000  2.191   -0.000 -0.000  3.158
  2 -0.000 -0.000  2.191   -0.000 -0.000  3.158
  3  0.000 -0.000  2.191   -0.000 -0.000  3.158
  4  0.000 -0.000  2.191    0.000 -0.000  3.158
  5  0.000 -0.000  2.191    0.000 -0.000  3.158
  6 -0.000 -0.000  2.191   -0.000 -0.000  3.158
  7  0.000 -0.000  2.191    0.000 -0.000  3.158
  8  0.000 -0.000  2.191    0.000 -0.000  3.158
  9 -0.000  0.000  0.664   -0.000  0.000  1.032
 10 -0.000  0.000  0.664   -0.000  0.000  1.032
 11  0.000  0.000  0.664   -0.000  0.000  1.032
 12 -0.000  0.000  0.664   -0.000  0.000  1.032
 13 -0.000 -0.000  0.664   -0.000 -0.000  1.032
 14  0.000  0.000  0.664    0.000  0.000  1.032
 15 -0.000  0.000  0.664   -0.000  0.000  1.032
 16 -0.000  0.000  0.664   -0.000  0.000  1.032
CGA:  31    -0.124803904209E+03   -0.19803E-03   -0.21017E-03  1200   0.521E-02  -0.273E-03

 E_p =  0.60912E-35  lambda =  0.200E+01
<lVp>=  0.12182E-34
 DBL = -0.60912E-35
 ion        MW_int                 M_int
  1  0.000  0.000  2.190    0.000  0.000  3.157
  2 -0.000  0.000  2.190   -0.000  0.000  3.157
  3 -0.000  0.000  2.190   -0.000  0.000  3.157
  4 -0.000  0.000  2.190   -0.000  0.000  3.157
  5  0.000  0.000  2.190    0.000  0.000  3.157
  6 -0.000 -0.000  2.190   -0.000 -0.000  3.157
  7 -0.000  0.000  2.190   -0.000 -0.000  3.157
  8 -0.000  0.000  2.190    0.000  0.000  3.157
  9 -0.000  0.000  0.664   -0.000  0.000  1.032
 10  0.000  0.000  0.664    0.000  0.000  1.032
 11 -0.000  0.000  0.664   -0.000  0.000  1.032
 12 -0.000  0.000  0.664   -0.000  0.000  1.032
 13 -0.000  0.000  0.664   -0.000  0.000  1.032
 14 -0.000  0.000  0.664   -0.000  0.000  1.032
 15 -0.000  0.000  0.664   -0.000  0.000  1.032
 16 -0.000  0.000  0.664   -0.000  0.000  1.032

 E_p =  0.11786E-34  lambda =  0.200E+01
<lVp>=  0.23571E-34
 DBL = -0.11786E-34
 ion        MW_int                 M_int
  1 -0.000 -0.000  2.191    0.000 -0.000  3.157
  2  0.000 -0.000  2.191    0.000 -0.000  3.157
  3  0.000 -0.000  2.191    0.000 -0.000  3.157
  4  0.000 -0.000  2.191    0.000 -0.000  3.157
  5 -0.000 -0.000  2.191    0.000 -0.000  3.157
  6  0.000 -0.000  2.191    0.000 -0.000  3.157
  7  0.000 -0.000  2.191    0.000 -0.000  3.157
  8 -0.000 -0.000  2.191   -0.000 -0.000  3.157
  9  0.000 -0.000  0.664    0.000 -0.000  1.032
 10  0.000 -0.000  0.664    0.000 -0.000  1.032
 11  0.000 -0.000  0.664    0.000 -0.000  1.032
 12  0.000 -0.000  0.664    0.000 -0.000  1.032
 13  0.000 -0.000  0.664    0.000 -0.000  1.032
 14  0.000 -0.000  0.664    0.000 -0.000  1.032
 15  0.000 -0.000  0.664    0.000 -0.000  1.032
 16  0.000 -0.000  0.664    0.000 -0.000  1.032
CGA:  32    -0.124804068632E+03   -0.16442E-03   -0.18124E-03  1200   0.492E-02  -0.311E-03

 E_p =  0.62692E-35  lambda =  0.200E+01
<lVp>=  0.12538E-34
 DBL = -0.62692E-35
 ion        MW_int                 M_int
  1 -0.000  0.000  2.190   -0.000  0.000  3.156
  2 -0.000  0.000  2.190   -0.000  0.000  3.156
  3 -0.000  0.000  2.190   -0.000  0.000  3.156
  4  0.000  0.000  2.190    0.000  0.000  3.156
  5  0.000  0.000  2.190    0.000  0.000  3.156
  6  0.000  0.000  2.190    0.000  0.000  3.156
  7 -0.000  0.000  2.190   -0.000  0.000  3.156
  8 -0.000  0.000  2.190   -0.000  0.000  3.156
  9  0.000  0.000  0.664    0.000  0.000  1.032
 10 -0.000  0.000  0.664   -0.000  0.000  1.032
 11 -0.000  0.000  0.664   -0.000 -0.000  1.032
 12 -0.000  0.000  0.664   -0.000  0.000  1.032
 13 -0.000 -0.000  0.664    0.000 -0.000  1.032
 14  0.000 -0.000  0.664    0.000 -0.000  1.032
 15  0.000  0.000  0.664    0.000  0.000  1.032
 16 -0.000  0.000  0.664   -0.000  0.000  1.032

 E_p =  0.37847E-35  lambda =  0.200E+01
<lVp>=  0.75693E-35
 DBL = -0.37847E-35
 ion        MW_int                 M_int
  1 -0.000  0.000  2.190   -0.000  0.000  3.157
  2 -0.000  0.000  2.190   -0.000  0.000  3.157
  3 -0.000  0.000  2.190   -0.000  0.000  3.157
  4 -0.000 -0.000  2.190   -0.000 -0.000  3.157
  5  0.000  0.000  2.190    0.000  0.000  3.157
  6 -0.000  0.000  2.190   -0.000  0.000  3.157
  7 -0.000  0.000  2.190   -0.000  0.000  3.157
  8 -0.000  0.000  2.190   -0.000  0.000  3.157
  9 -0.000 -0.000  0.664   -0.000 -0.000  1.032
 10 -0.000 -0.000  0.664   -0.000 -0.000  1.032
 11 -0.000 -0.000  0.664   -0.000 -0.000  1.032
 12 -0.000 -0.000  0.664   -0.000 -0.000  1.032
 13 -0.000 -0.000  0.664   -0.000 -0.000  1.032
 14 -0.000 -0.000  0.664   -0.000 -0.000  1.032
 15 -0.000 -0.000  0.664   -0.000 -0.000  1.032
 16 -0.000 -0.000  0.664   -0.000 -0.000  1.032
CGA:  33    -0.124804246620E+03   -0.17799E-03   -0.18974E-03  1200   0.487E-02   0.861E-04

 E_p =  0.44989E-35  lambda =  0.200E+01
<lVp>=  0.89977E-35
 DBL = -0.44989E-35
 ion        MW_int                 M_int
  1  0.000 -0.000  2.189    0.000 -0.000  3.155
  2  0.000 -0.000  2.189    0.000 -0.000  3.155
  3  0.000 -0.000  2.189    0.000 -0.000  3.155
  4  0.000 -0.000  2.189    0.000 -0.000  3.155
  5  0.000 -0.000  2.189    0.000 -0.000  3.155
  6  0.000 -0.000  2.189    0.000 -0.000  3.155
  7  0.000 -0.000  2.189    0.000 -0.000  3.155
  8  0.000 -0.000  2.189    0.000 -0.000  3.155
  9 -0.000 -0.000  0.664   -0.000 -0.000  1.032
 10  0.000  0.000  0.664    0.000  0.000  1.032
 11 -0.000 -0.000  0.664   -0.000 -0.000  1.032
 12 -0.000 -0.000  0.664   -0.000 -0.000  1.032
 13  0.000 -0.000  0.664    0.000 -0.000  1.032
 14 -0.000 -0.000  0.664    0.000 -0.000  1.032
 15  0.000  0.000  0.664    0.000  0.000  1.032
 16 -0.000 -0.000  0.664   -0.000 -0.000  1.032

 E_p =  0.21463E-35  lambda =  0.200E+01
<lVp>=  0.42927E-35
 DBL = -0.21463E-35
 ion        MW_int                 M_int
  1 -0.000 -0.000  2.190    0.000 -0.000  3.156
  2  0.000  0.000  2.190    0.000  0.000  3.156
  3  0.000 -0.000  2.190    0.000 -0.000  3.156
  4 -0.000 -0.000  2.190   -0.000 -0.000  3.156
  5  0.000  0.000  2.190    0.000  0.000  3.156
  6  0.000  0.000  2.190    0.000  0.000  3.156
  7  0.000 -0.000  2.190    0.000 -0.000  3.156
  8  0.000  0.000  2.190    0.000  0.000  3.156
  9 -0.000  0.000  0.664   -0.000  0.000  1.032
 10  0.000  0.000  0.664    0.000  0.000  1.032
 11 -0.000  0.000  0.664   -0.000  0.000  1.032
 12  0.000 -0.000  0.664    0.000 -0.000  1.032
 13  0.000 -0.000  0.664    0.000 -0.000  1.032
 14 -0.000  0.000  0.664   -0.000  0.000  1.032
 15  0.000 -0.000  0.664    0.000 -0.000  1.032
 16 -0.000  0.000  0.664   -0.000  0.000  1.032
CGA:  34    -0.124804435346E+03   -0.18873E-03   -0.16609E-03  1200   0.423E-02   0.348E-03

 E_p =  0.43408E-35  lambda =  0.200E+01
<lVp>=  0.86816E-35
 DBL = -0.43408E-35
 ion        MW_int                 M_int
  1 -0.000 -0.000  2.189   -0.000 -0.000  3.155
  2  0.000 -0.000  2.189    0.000 -0.000  3.155
  3 -0.000 -0.000  2.189   -0.000 -0.000  3.155
  4 -0.000 -0.000  2.189   -0.000 -0.000  3.155
  5 -0.000  0.000  2.189   -0.000  0.000  3.155
  6 -0.000  0.000  2.189   -0.000  0.000  3.155
  7 -0.000 -0.000  2.189   -0.000 -0.000  3.155
  8 -0.000 -0.000  2.189   -0.000 -0.000  3.155
  9 -0.000 -0.000  0.663   -0.000 -0.000  1.031
 10 -0.000  0.000  0.663   -0.000  0.000  1.031
 11 -0.000 -0.000  0.663   -0.000 -0.000  1.031
 12 -0.000  0.000  0.663   -0.000  0.000  1.031
 13 -0.000  0.000  0.663   -0.000  0.000  1.031
 14 -0.000 -0.000  0.663   -0.000 -0.000  1.031
 15 -0.000  0.000  0.663   -0.000  0.000  1.031
 16 -0.000 -0.000  0.663   -0.000 -0.000  1.031

 E_p =  0.90595E-35  lambda =  0.200E+01
<lVp>=  0.18119E-34
 DBL = -0.90595E-35
 ion        MW_int                 M_int
  1  0.000  0.000  2.190    0.000  0.000  3.156
  2  0.000 -0.000  2.190    0.000 -0.000  3.156
  3  0.000  0.000  2.190    0.000  0.000  3.156
  4  0.000  0.000  2.190    0.000  0.000  3.156
  5  0.000 -0.000  2.190    0.000 -0.000  3.156
  6  0.000 -0.000  2.190    0.000 -0.000  3.156
  7  0.000  0.000  2.190    0.000  0.000  3.156
  8  0.000 -0.000  2.190    0.000 -0.000  3.156
  9 -0.000  0.000  0.664   -0.000  0.000  1.032
 10  0.000  0.000  0.664    0.000  0.000  1.032
 11 -0.000  0.000  0.664   -0.000  0.000  1.032
 12  0.000  0.000  0.664    0.000  0.000  1.032
 13 -0.000  0.000  0.664   -0.000  0.000  1.032
 14 -0.000  0.000  0.664   -0.000  0.000  1.032
 15 -0.000  0.000  0.664   -0.000  0.000  1.032
 16 -0.000  0.000  0.664   -0.000  0.000  1.032
CGA:  35    -0.124804557292E+03   -0.12195E-03   -0.13356E-03  1200   0.414E-02  -0.438E-03

 E_p =  0.19900E-35  lambda =  0.200E+01
<lVp>=  0.39801E-35
 DBL = -0.19900E-35
 ion        MW_int                 M_int
  1  0.000  0.000  2.189    0.000  0.000  3.155
  2 -0.000 -0.000  2.189   -0.000 -0.000  3.155
  3  0.000 -0.000  2.189    0.000 -0.000  3.155
  4 -0.000 -0.000  2.189   -0.000 -0.000  3.155
  5  0.000 -0.000  2.189    0.000 -0.000  3.155
  6 -0.000 -0.000  2.189   -0.000 -0.000  3.155
  7  0.000 -0.000  2.189    0.000 -0.000  3.155
  8 -0.000 -0.000  2.189   -0.000 -0.000  3.155
  9  0.000 -0.000  0.663    0.000 -0.000  1.031
 10 -0.000  0.000  0.663   -0.000  0.000  1.031
 11  0.000  0.000  0.663    0.000  0.000  1.031
 12 -0.000  0.000  0.663   -0.000  0.000  1.031
 13 -0.000  0.000  0.663   -0.000  0.000  1.031
 14 -0.000  0.000  0.663   -0.000  0.000  1.031
 15  0.000  0.000  0.663    0.000  0.000  1.031
 16  0.000  0.000  0.663    0.000  0.000  1.031
   1 F= -.12480456E+03 E0= -.12479754E+03  d E =-.210617E-01  mag=     0.0000     0.0000    33.0779

 E_p =  0.19900E-35  lambda =  0.200E+01
 ion             lambda*MW_perp
  1   0.31212E-18  -0.15469E-17   0.00000E+00
  2  -0.12625E-18   0.96932E-18   0.00000E+00
  3   0.89873E-18  -0.21622E-17   0.00000E+00
  4   0.54044E-18  -0.27233E-17   0.00000E+00
  5   0.11040E-17   0.68446E-18   0.00000E+00
  6   0.10252E-17   0.76105E-18   0.00000E+00
  7   0.17666E-18  -0.79901E-18   0.00000E+00
  8   0.74889E-18  -0.54942E-19   0.00000E+00
  9   0.81540E-18   0.18811E-17   0.00000E+00
 10  -0.11477E-18   0.30387E-17   0.00000E+00
 11   0.14663E-17   0.17879E-17   0.00000E+00
 12   0.93700E-18   0.25025E-17   0.00000E+00
 13   0.40586E-18   0.12468E-17   0.00000E+00
 14   0.14280E-17   0.32116E-17   0.00000E+00
 15  -0.17472E-17   0.35285E-17   0.00000E+00
 16   0.35781E-18   0.23094E-17   0.00000E+00
